 Entering Gaussian System, Link 0=g09
 Initial command:
 /soft/gaussian/09-e.01/g09/l1.exe "/scratch/kmoore/Gau-15680.inp" -scrdir="/scratch/kmoore"
 Entering Link 1 = /soft/gaussian/09-e.01/g09/l1.exe PID=     15681.
  
 Copyright (c) 1988,1990,1992,1993,1995,1998,2003,2009,2015,
            Gaussian, Inc.  All Rights Reserved.
  
 This is part of the Gaussian(R) 09 program.  It is based on
 the Gaussian(R) 03 system (copyright 2003, Gaussian, Inc.),
 the Gaussian(R) 98 system (copyright 1998, Gaussian, Inc.),
 the Gaussian(R) 94 system (copyright 1995, Gaussian, Inc.),
 the Gaussian 92(TM) system (copyright 1992, Gaussian, Inc.),
 the Gaussian 90(TM) system (copyright 1990, Gaussian, Inc.),
 the Gaussian 88(TM) system (copyright 1988, Gaussian, Inc.),
 the Gaussian 86(TM) system (copyright 1986, Carnegie Mellon
 University), and the Gaussian 82(TM) system (copyright 1983,
 Carnegie Mellon University). Gaussian is a federally registered
 trademark of Gaussian, Inc.
  
 This software contains proprietary and confidential information,
 including trade secrets, belonging to Gaussian, Inc.
  
 This software is provided under written license and may be
 used, copied, transmitted, or stored only in accord with that
 written license.
  
 The following legend is applicable only to US Government
 contracts under FAR:
  
                    RESTRICTED RIGHTS LEGEND
  
 Use, reproduction and disclosure by the US Government is
 subject to restrictions as set forth in subparagraphs (a)
 and (c) of the Commercial Computer Software - Restricted
 Rights clause in FAR 52.227-19.
  
 Gaussian, Inc.
 340 Quinnipiac St., Bldg. 40, Wallingford CT 06492
  
  
 ---------------------------------------------------------------
 Warning -- This program may not be used in any manner that
 competes with the business of Gaussian, Inc. or will provide
 assistance to any competitor of Gaussian, Inc.  The licensee
 of this program is prohibited from giving any competitor of
 Gaussian, Inc. access to this program.  By using this program,
 the user acknowledges that Gaussian, Inc. is engaged in the
 business of creating and licensing software in the field of
 computational chemistry and represents and warrants to the
 licensee that it is not a competitor of Gaussian, Inc. and that
 it will not use this program in any manner prohibited above.
 ---------------------------------------------------------------
  

 Cite this work as:
 Gaussian 09, Revision E.01,
 M. J. Frisch, G. W. Trucks, H. B. Schlegel, G. E. Scuseria, 
 M. A. Robb, J. R. Cheeseman, G. Scalmani, V. Barone, B. Mennucci, 
 G. A. Petersson, H. Nakatsuji, M. Caricato, X. Li, H. P. Hratchian, 
 A. F. Izmaylov, J. Bloino, G. Zheng, J. L. Sonnenberg, M. Hada, 
 M. Ehara, K. Toyota, R. Fukuda, J. Hasegawa, M. Ishida, T. Nakajima, 
 Y. Honda, O. Kitao, H. Nakai, T. Vreven, J. A. Montgomery, Jr., 
 J. E. Peralta, F. Ogliaro, M. Bearpark, J. J. Heyd, E. Brothers, 
 K. N. Kudin, V. N. Staroverov, T. Keith, R. Kobayashi, J. Normand, 
 K. Raghavachari, A. Rendell, J. C. Burant, S. S. Iyengar, J. Tomasi, 
 M. Cossi, N. Rega, J. M. Millam, M. Klene, J. E. Knox, J. B. Cross, 
 V. Bakken, C. Adamo, J. Jaramillo, R. Gomperts, R. E. Stratmann, 
 O. Yazyev, A. J. Austin, R. Cammi, C. Pomelli, J. W. Ochterski, 
 R. L. Martin, K. Morokuma, V. G. Zakrzewski, G. A. Voth, 
 P. Salvador, J. J. Dannenberg, S. Dapprich, A. D. Daniels, 
 O. Farkas, J. B. Foresman, J. V. Ortiz, J. Cioslowski, 
 and D. J. Fox, Gaussian, Inc., Wallingford CT, 2013.
 
 ******************************************
 Gaussian 09:  ES64L-G09RevE.01 30-Nov-2015
                 5-Aug-2021 
 ******************************************
 %mem=20GB
 %NProcShared=10
 Will use up to   10 processors via shared memory.
 -------------------------------------------------------------
 #P wb97xd/6-31g* # SCF=(xqc) # POpt=() # int=ultrafine # Freq
 -------------------------------------------------------------
 1/10=7,14=-1,26=4,38=1/1,3;
 2/12=2,17=6,18=5,29=3,40=1/2;
 3/5=1,6=6,7=1,11=2,16=1,25=1,30=1,71=1,74=-58,75=-5/1,2,3;
 4//1;
 5/5=2,8=3,13=1,38=5/2,8;
 6/7=2,8=2,9=2,10=2,28=1/1;
 7/29=1/1,2,3,16;
 1/10=7,14=-1,26=4/3(2);
 2/29=3/2;
 99//99;
 2/29=3/2;
 3/5=1,6=6,7=1,11=2,16=1,25=1,30=1,71=1,74=-58,75=-5/1,2,3;
 4/5=5,16=3,69=1/1;
 5/5=2,8=3,13=1,38=5/2,8;
 7//1,2,3,16;
 1/14=-1,26=4/3(-5);
 2/29=3/2;
 6/7=2,8=2,9=2,10=2,19=2,28=1/1;
 99/9=1/99;
 Leave Link    1 at Thu Aug  5 17:06:32 2021, MaxMem=  2684354560 cpu:         0.4
 (Enter /soft/gaussian/09-e.01/g09/l101.exe)
 --------
 comment:
 --------
 Symbolic Z-matrix:
 Charge =  0 Multiplicity = 1
 O
 C                    1    R1
 X                    2    R2       1    A2
 O                    2    R3       3    A3       1    D3       0
       Variables:
  R1                    1.405                    
  R2                    1.                       
  R3                    1.405                    
       Constants:
  A2                   90.                       
  A3                   90.                       
  D3                  179.9998                   
 
 NAtoms=      3 NQM=        3 NQMF=       0 NMMI=      0 NMMIF=      0
                NMic=       0 NMicF=      0.
                    Isotopes and Nuclear Properties:
 (Nuclear quadrupole moments (NQMom) in fm**2, nuclear magnetic moments (NMagM)
  in nuclear magnetons)

  Atom         1           2           3
 IAtWgt=          16          12          16
 AtmWgt=  15.9949146  12.0000000  15.9949146
 NucSpn=           0           0           0
 AtZEff=   0.0000000   0.0000000   0.0000000
 NQMom=    0.0000000   0.0000000   0.0000000
 NMagM=    0.0000000   0.0000000   0.0000000
 AtZNuc=   8.0000000   6.0000000   8.0000000
 Leave Link  101 at Thu Aug  5 17:06:32 2021, MaxMem=  2684354560 cpu:         0.6
 (Enter /soft/gaussian/09-e.01/g09/l103.exe)

 GradGradGradGradGradGradGradGradGradGradGradGradGradGradGradGradGradGrad
 Berny optimization.
 Initialization pass.
                       ----------------------------
                       !    Initial Parameters    !
                       ! (Angstroms and Degrees)  !
 ----------------------                            ----------------------
 !      Name          Value   Derivative information (Atomic Units)     !
 ------------------------------------------------------------------------
 !       R1          1.405    estimate D2E/DX2                          !
 !       R2          1.0      estimate D2E/DX2                          !
 !       R3          1.405    estimate D2E/DX2                          !
 !       A2         90.0      Frozen                                    !
 !       A3         90.0      Frozen                                    !
 !       D3        179.9998   Frozen                                    !
 ------------------------------------------------------------------------
 Trust Radius=3.00D-01 FncErr=1.00D-07 GrdErr=1.00D-06
 Number of steps in this run=     20 maximum allowed number of steps=    100.
 GradGradGradGradGradGradGradGradGradGradGradGradGradGradGradGradGradGrad

 Leave Link  103 at Thu Aug  5 17:06:32 2021, MaxMem=  2684354560 cpu:         0.2
 (Enter /soft/gaussian/09-e.01/g09/l202.exe)
 ---------------------------------------------------------------------------------------------------
                            Z-MATRIX (ANGSTROMS AND DEGREES)
   CD    Cent   Atom    N1       Length/X        N2       Alpha/Y        N3        Beta/Z          J
 ---------------------------------------------------------------------------------------------------
      1      1  O 
      2      2  C        1   1.405000(     1)
      3         X        2   1.000000(     2)      1   90.000(     4)
      4      3  O        2   1.405001(     3)      3   90.000(     5)      1  180.000(     6)      0
 ---------------------------------------------------------------------------------------------------
                         Z-Matrix orientation:                         
 ---------------------------------------------------------------------
 Center     Atomic      Atomic             Coordinates (Angstroms)
 Number     Number       Type             X           Y           Z
 ---------------------------------------------------------------------
      1          8           0        0.000000    0.000000    0.000000
      2          6           0        0.000000    0.000000    1.405000
      3         -1           0        1.000000    0.000000    1.405000
      4          8           0        0.000000   -0.000005    2.810001
 ---------------------------------------------------------------------
                    Distance matrix (angstroms):
                    1          2          3          4
     1  O    0.000000
     2  C    1.405000   0.000000
     3  X    1.724536   1.000000   0.000000
     4  O    2.810001   1.405001   1.724537   0.000000
 Stoichiometry    CO2
 Framework group  C*V[C*(OCO)]
 Deg. of freedom     2
 Full point group                 C*V     NOp   4
 Largest Abelian subgroup         C2V     NOp   4
 Largest concise Abelian subgroup C1      NOp   1
                         Standard orientation:                         
 ---------------------------------------------------------------------
 Center     Atomic      Atomic             Coordinates (Angstroms)
 Number     Number       Type             X           Y           Z
 ---------------------------------------------------------------------
      1          8           0       -0.000000    0.000000   -1.405000
      2          6           0       -0.000000    0.000000   -0.000000
      3          8           0        0.000000    0.000000    1.405001
 ---------------------------------------------------------------------
 Rotational constants (GHZ):      0.0000000      8.0029908      8.0029908
 Leave Link  202 at Thu Aug  5 17:06:32 2021, MaxMem=  2684354560 cpu:         0.2
 (Enter /soft/gaussian/09-e.01/g09/l301.exe)
 Standard basis: 6-31G(d) (6D, 7F)
 Ernie: Thresh=  0.10000D-02 Tol=  0.10000D-05 Strict=F.
 There are    24 symmetry adapted cartesian basis functions of A1  symmetry.
 There are     3 symmetry adapted cartesian basis functions of A2  symmetry.
 There are     9 symmetry adapted cartesian basis functions of B1  symmetry.
 There are     9 symmetry adapted cartesian basis functions of B2  symmetry.
 There are    24 symmetry adapted basis functions of A1  symmetry.
 There are     3 symmetry adapted basis functions of A2  symmetry.
 There are     9 symmetry adapted basis functions of B1  symmetry.
 There are     9 symmetry adapted basis functions of B2  symmetry.
    45 basis functions,    84 primitive gaussians,    45 cartesian basis functions
    11 alpha electrons       11 beta electrons
       nuclear repulsion energy        48.2097214198 Hartrees.
 IExCor= 4639 DFT=T Ex+Corr=wB97XD ExCW=0 ScaHFX=  1.000000
 ScaDFX=  1.000000  1.000000  1.000000  1.000000 ScalE2=  1.000000  1.000000
 IRadAn=      5 IRanWt=     -1 IRanGd=            0 ICorTp=0 IEmpDi=121
  HFx wShort=  0.000000 wLong=  0.200000 cFull=  0.222036 cShort=  0.000000 cLong=  0.777964
  DFx wShort=  0.000000 wLong=  0.200000 cFull=  0.000000 cShort=  0.000000 cLong=  1.000000
 NAtoms=    3 NActive=    3 NUniq=    3 SFac= 1.00D+00 NAtFMM=   60 NAOKFM=F Big=F
 Integral buffers will be    131072 words long.
 Raffenetti 2 integral format.
 Two-electron integral symmetry is turned on.
 R6Disp:  Grimme-D2 Dispersion energy=       -0.0001262048 Hartrees.
 Nuclear repulsion after empirical dispersion term =       48.2095952150 Hartrees.
 Leave Link  301 at Thu Aug  5 17:06:32 2021, MaxMem=  2684354560 cpu:         0.5
 (Enter /soft/gaussian/09-e.01/g09/l302.exe)
 NPDir=0 NMtPBC=     1 NCelOv=     1 NCel=       1 NClECP=     1 NCelD=      1
         NCelK=      1 NCelE2=     1 NClLst=     1 CellRange=     0.0.
 One-electron integrals computed using PRISM.
 NBasis=    45 RedAO= T EigKep=  8.16D-03  NBF=    24     3     9     9
 NBsUse=    45 1.00D-06 EigRej= -1.00D+00 NBFU=    24     3     9     9
 Precomputing XC quadrature grid using
 IXCGrd= 4 IRadAn=           5 IRanWt=          -1 IRanGd=           0 AccXCQ= 0.00D+00.
 Generated NRdTot=       0 NPtTot=           0 NUsed=           0 NTot=          32
 NSgBfM=    45    45    45    45    45 MxSgAt=     3 MxSgA2=     3.
 Leave Link  302 at Thu Aug  5 17:06:32 2021, MaxMem=  2684354560 cpu:         1.6
 (Enter /soft/gaussian/09-e.01/g09/l303.exe)
 DipDrv:  MaxL=1.
 Leave Link  303 at Thu Aug  5 17:06:32 2021, MaxMem=  2684354560 cpu:         0.2
 (Enter /soft/gaussian/09-e.01/g09/l401.exe)
 ExpMin= 1.69D-01 ExpMax= 5.48D+03 ExpMxC= 8.25D+02 IAcc=3 IRadAn=         5 AccDes= 0.00D+00
 Harris functional with IExCor= 4639 and IRadAn=       5 diagonalized for initial guess.
 HarFok:  IExCor= 4639 AccDes= 0.00D+00 IRadAn=         5 IDoV= 1 UseB2=F ITyADJ=14
 ICtDFT=  3500011 ScaDFX=  1.000000  1.000000  1.000000  1.000000
 FoFCou: FMM=F IPFlag=           0 FMFlag=      100000 FMFlg1=           0
         NFxFlg=           0 DoJE=T BraDBF=F KetDBF=T FulRan=T
         wScrn=  0.000000 ICntrl=     500 IOpCl=  0 I1Cent=   200000004 NGrid=           0
         NMat0=    1 NMatS0=      1 NMatT0=    0 NMatD0=    1 NMtDS0=    0 NMtDT0=    0
 Petite list used in FoFCou.
 Harris En= -181.864219330657    
 JPrj=0 DoOrth=F DoCkMO=F.
 Initial guess orbital symmetries:
       Occupied  (SG) (SG) (SG) (SG) (SG) (SG) (SG) (PI) (PI) (PI)
                 (PI)
       Virtual   (PI) (PI) (SG) (SG) (SG) (PI) (PI) (SG) (SG) (PI)
                 (PI) (SG) (PI) (PI) (SG) (PI) (PI) (DLTA) (DLTA)
                 (DLTA) (DLTA) (SG) (PI) (PI) (DLTA) (DLTA) (SG)
                 (PI) (PI) (SG) (SG) (SG) (SG) (SG)
 The electronic state of the initial guess is 1-SG.
 Leave Link  401 at Thu Aug  5 17:06:32 2021, MaxMem=  2684354560 cpu:         1.7
 (Enter /soft/gaussian/09-e.01/g09/l502.exe)
 Closed shell SCF:
 Using DIIS extrapolation, IDIIS=  1040.
 Integral symmetry usage will be decided dynamically.
 Keep R1 ints in memory in symmetry-blocked form, NReq=1955907.
 IVT=       12848 IEndB=       12848 NGot=  2684354560 MDV=  2684188389
 LenX=  2684188389 LenY=  2684185923
 Requested convergence on RMS density matrix=1.00D-08 within  64 cycles.
 Requested convergence on MAX density matrix=1.00D-06.
 Requested convergence on             energy=1.00D-06.
 No special actions if energy rises.
 FoFCou: FMM=F IPFlag=           0 FMFlag=           0 FMFlg1=           0
         NFxFlg=           0 DoJE=F BraDBF=F KetDBF=F FulRan=T
         wScrn=  0.000000 ICntrl=     600 IOpCl=  0 I1Cent=           0 NGrid=           0
         NMat0=    1 NMatS0=   1035 NMatT0=    0 NMatD0=    1 NMtDS0=    0 NMtDT0=    0
 Petite list used in FoFCou.
 Integral accuracy reduced to 1.0D-05 until final iterations.

 Cycle   1  Pass 0  IDiag  1:
 E= -188.281359002885    
 DIIS: error= 9.46D-02 at cycle   1 NSaved=   1.
 NSaved= 1 IEnMin= 1 EnMin= -188.281359002885     IErMin= 1 ErrMin= 9.46D-02
 ErrMax= 9.46D-02  0.00D+00 EMaxC= 1.00D-01 BMatC= 2.14D-01 BMatP= 2.14D-01
 IDIUse=3 WtCom= 5.45D-02 WtEn= 9.46D-01
 Coeff-Com:  0.100D+01
 Coeff-En:   0.100D+01
 Coeff:      0.100D+01
 Gap=     0.411 Goal=   None    Shift=    0.000
 GapD=    0.411 DampG=2.000 DampE=0.500 DampFc=1.0000 IDamp=-1.
 RMSDP=9.69D-03 MaxDP=1.04D-01              OVMax= 8.62D-02

 Cycle   2  Pass 0  IDiag  1:
 E= -188.358531742647     Delta-E=       -0.077172739762 Rises=F Damp=F
 DIIS: error= 1.78D-02 at cycle   2 NSaved=   2.
 NSaved= 2 IEnMin= 2 EnMin= -188.358531742647     IErMin= 2 ErrMin= 1.78D-02
 ErrMax= 1.78D-02  0.00D+00 EMaxC= 1.00D-01 BMatC= 1.85D-02 BMatP= 2.14D-01
 IDIUse=3 WtCom= 8.22D-01 WtEn= 1.78D-01
 Coeff-Com:  0.207D+00 0.793D+00
 Coeff-En:   0.000D+00 0.100D+01
 Coeff:      0.171D+00 0.829D+00
 Gap=     0.430 Goal=   None    Shift=    0.000
 RMSDP=3.01D-03 MaxDP=3.62D-02 DE=-7.72D-02 OVMax= 3.25D-02

 Cycle   3  Pass 0  IDiag  1:
 E= -188.373361675009     Delta-E=       -0.014829932361 Rises=F Damp=F
 DIIS: error= 4.21D-03 at cycle   3 NSaved=   3.
 NSaved= 3 IEnMin= 3 EnMin= -188.373361675009     IErMin= 3 ErrMin= 4.21D-03
 ErrMax= 4.21D-03  0.00D+00 EMaxC= 1.00D-01 BMatC= 7.04D-04 BMatP= 1.85D-02
 IDIUse=3 WtCom= 9.58D-01 WtEn= 4.21D-02
 Coeff-Com:  0.378D-02 0.165D+00 0.831D+00
 Coeff-En:   0.000D+00 0.000D+00 0.100D+01
 Coeff:      0.362D-02 0.159D+00 0.838D+00
 Gap=     0.423 Goal=   None    Shift=    0.000
 RMSDP=5.71D-04 MaxDP=8.32D-03 DE=-1.48D-02 OVMax= 7.91D-03

 Cycle   4  Pass 0  IDiag  1:
 E= -188.373905758149     Delta-E=       -0.000544083140 Rises=F Damp=F
 DIIS: error= 1.82D-03 at cycle   4 NSaved=   4.
 NSaved= 4 IEnMin= 4 EnMin= -188.373905758149     IErMin= 4 ErrMin= 1.82D-03
 ErrMax= 1.82D-03  0.00D+00 EMaxC= 1.00D-01 BMatC= 8.69D-05 BMatP= 7.04D-04
 IDIUse=3 WtCom= 9.82D-01 WtEn= 1.82D-02
 Coeff-Com:  0.370D-03 0.890D-01 0.466D+00 0.444D+00
 Coeff-En:   0.000D+00 0.000D+00 0.000D+00 0.100D+01
 Coeff:      0.363D-03 0.874D-01 0.458D+00 0.454D+00
 Gap=     0.425 Goal=   None    Shift=    0.000
 RMSDP=1.44D-04 MaxDP=1.81D-03 DE=-5.44D-04 OVMax= 3.60D-03

 Cycle   5  Pass 0  IDiag  1:
 E= -188.373972052028     Delta-E=       -0.000066293879 Rises=F Damp=F
 DIIS: error= 5.54D-04 at cycle   5 NSaved=   5.
 NSaved= 5 IEnMin= 5 EnMin= -188.373972052028     IErMin= 5 ErrMin= 5.54D-04
 ErrMax= 5.54D-04  0.00D+00 EMaxC= 1.00D-01 BMatC= 1.05D-05 BMatP= 8.69D-05
 IDIUse=3 WtCom= 9.94D-01 WtEn= 5.54D-03
 Coeff-Com: -0.996D-03-0.150D-01-0.613D-01 0.233D+00 0.844D+00
 Coeff-En:   0.000D+00 0.000D+00 0.000D+00 0.701D-01 0.930D+00
 Coeff:     -0.990D-03-0.149D-01-0.609D-01 0.232D+00 0.844D+00
 Gap=     0.425 Goal=   None    Shift=    0.000
 RMSDP=5.43D-05 MaxDP=8.28D-04 DE=-6.63D-05 OVMax= 1.20D-03

 Cycle   6  Pass 0  IDiag  1:
 E= -188.373981259776     Delta-E=       -0.000009207747 Rises=F Damp=F
 DIIS: error= 9.13D-05 at cycle   6 NSaved=   6.
 NSaved= 6 IEnMin= 6 EnMin= -188.373981259776     IErMin= 6 ErrMin= 9.13D-05
 ErrMax= 9.13D-05  0.00D+00 EMaxC= 1.00D-01 BMatC= 1.30D-07 BMatP= 1.05D-05
 IDIUse=1 WtCom= 1.00D+00 WtEn= 0.00D+00
 Coeff-Com:  0.120D-03-0.480D-02-0.269D-01-0.376D-01-0.148D+00 0.122D+01
 Coeff:      0.120D-03-0.480D-02-0.269D-01-0.376D-01-0.148D+00 0.122D+01
 Gap=     0.425 Goal=   None    Shift=    0.000
 RMSDP=1.70D-05 MaxDP=1.80D-04 DE=-9.21D-06 OVMax= 3.82D-04

 Cycle   7  Pass 0  IDiag  1:
 E= -188.373981575454     Delta-E=       -0.000000315678 Rises=F Damp=F
 DIIS: error= 7.60D-06 at cycle   7 NSaved=   7.
 NSaved= 7 IEnMin= 7 EnMin= -188.373981575454     IErMin= 7 ErrMin= 7.60D-06
 ErrMax= 7.60D-06  0.00D+00 EMaxC= 1.00D-01 BMatC= 1.19D-09 BMatP= 1.30D-07
 IDIUse=1 WtCom= 1.00D+00 WtEn= 0.00D+00
 Coeff-Com: -0.646D-05 0.136D-02 0.745D-02 0.235D-02 0.178D-03-0.209D+00
 Coeff-Com:  0.120D+01
 Coeff:     -0.646D-05 0.136D-02 0.745D-02 0.235D-02 0.178D-03-0.209D+00
 Coeff:      0.120D+01
 Gap=     0.425 Goal=   None    Shift=    0.000
 RMSDP=1.85D-06 MaxDP=2.71D-05 DE=-3.16D-07 OVMax= 3.73D-05

 Initial convergence to 1.0D-05 achieved.  Increase integral accuracy.
 Cycle   8  Pass 1  IDiag  1:
 E= -188.373995818793     Delta-E=       -0.000014243339 Rises=F Damp=F
 DIIS: error= 1.32D-05 at cycle   1 NSaved=   1.
 NSaved= 1 IEnMin= 1 EnMin= -188.373995818793     IErMin= 1 ErrMin= 1.32D-05
 ErrMax= 1.32D-05  0.00D+00 EMaxC= 1.00D-01 BMatC= 5.34D-09 BMatP= 5.34D-09
 IDIUse=1 WtCom= 1.00D+00 WtEn= 0.00D+00
 Coeff-Com:  0.100D+01
 Coeff:      0.100D+01
 Gap=     0.425 Goal=   None    Shift=    0.000
 RMSDP=1.85D-06 MaxDP=2.71D-05 DE=-1.42D-05 OVMax= 2.47D-05

 Cycle   9  Pass 1  IDiag  1:
 E= -188.373995824062     Delta-E=       -0.000000005269 Rises=F Damp=F
 DIIS: error= 7.54D-06 at cycle   2 NSaved=   2.
 NSaved= 2 IEnMin= 2 EnMin= -188.373995824062     IErMin= 2 ErrMin= 7.54D-06
 ErrMax= 7.54D-06  0.00D+00 EMaxC= 1.00D-01 BMatC= 1.53D-09 BMatP= 5.34D-09
 IDIUse=1 WtCom= 1.00D+00 WtEn= 0.00D+00
 Coeff-Com:  0.206D+00 0.794D+00
 Coeff:      0.206D+00 0.794D+00
 Gap=     0.425 Goal=   None    Shift=    0.000
 RMSDP=1.08D-06 MaxDP=1.55D-05 DE=-5.27D-09 OVMax= 1.63D-05

 Cycle  10  Pass 1  IDiag  1:
 E= -188.373995823288     Delta-E=        0.000000000774 Rises=F Damp=F
 DIIS: error= 6.92D-06 at cycle   3 NSaved=   3.
 NSaved= 3 IEnMin= 2 EnMin= -188.373995824062     IErMin= 3 ErrMin= 6.92D-06
 ErrMax= 6.92D-06  0.00D+00 EMaxC= 1.00D-01 BMatC= 2.57D-09 BMatP= 1.53D-09
 IDIUse=1 WtCom= 1.00D+00 WtEn= 0.00D+00
 Coeff-Com: -0.847D-01 0.608D+00 0.477D+00
 Coeff:     -0.847D-01 0.608D+00 0.477D+00
 Gap=     0.425 Goal=   None    Shift=    0.000
 RMSDP=6.39D-07 MaxDP=1.02D-05 DE= 7.74D-10 OVMax= 1.14D-05

 Cycle  11  Pass 1  IDiag  1:
 E= -188.373995825277     Delta-E=       -0.000000001989 Rises=F Damp=F
 DIIS: error= 1.16D-06 at cycle   4 NSaved=   4.
 NSaved= 4 IEnMin= 4 EnMin= -188.373995825277     IErMin= 4 ErrMin= 1.16D-06
 ErrMax= 1.16D-06  0.00D+00 EMaxC= 1.00D-01 BMatC= 4.75D-11 BMatP= 1.53D-09
 IDIUse=1 WtCom= 1.00D+00 WtEn= 0.00D+00
 Coeff-Com: -0.471D-01 0.305D+00 0.259D+00 0.483D+00
 Coeff:     -0.471D-01 0.305D+00 0.259D+00 0.483D+00
 Gap=     0.425 Goal=   None    Shift=    0.000
 RMSDP=1.24D-07 MaxDP=1.98D-06 DE=-1.99D-09 OVMax= 2.58D-06

 Cycle  12  Pass 1  IDiag  1:
 E= -188.373995825307     Delta-E=       -0.000000000030 Rises=F Damp=F
 DIIS: error= 5.90D-07 at cycle   5 NSaved=   5.
 NSaved= 5 IEnMin= 5 EnMin= -188.373995825307     IErMin= 5 ErrMin= 5.90D-07
 ErrMax= 5.90D-07  0.00D+00 EMaxC= 1.00D-01 BMatC= 1.30D-11 BMatP= 4.75D-11
 IDIUse=1 WtCom= 1.00D+00 WtEn= 0.00D+00
 Coeff-Com:  0.458D-02-0.762D-01-0.377D-01 0.350D+00 0.759D+00
 Coeff:      0.458D-02-0.762D-01-0.377D-01 0.350D+00 0.759D+00
 Gap=     0.425 Goal=   None    Shift=    0.000
 RMSDP=5.63D-08 MaxDP=8.80D-07 DE=-3.02D-11 OVMax= 1.03D-06

 Cycle  13  Pass 1  IDiag  1:
 E= -188.373995825318     Delta-E=       -0.000000000011 Rises=F Damp=F
 DIIS: error= 6.16D-08 at cycle   6 NSaved=   6.
 NSaved= 6 IEnMin= 6 EnMin= -188.373995825318     IErMin= 6 ErrMin= 6.16D-08
 ErrMax= 6.16D-08  0.00D+00 EMaxC= 1.00D-01 BMatC= 9.91D-14 BMatP= 1.30D-11
 IDIUse=1 WtCom= 1.00D+00 WtEn= 0.00D+00
 Coeff-Com:  0.308D-02-0.263D-01-0.152D-01 0.410D-01 0.102D+00 0.896D+00
 Coeff:      0.308D-02-0.263D-01-0.152D-01 0.410D-01 0.102D+00 0.896D+00
 Gap=     0.425 Goal=   None    Shift=    0.000
 RMSDP=8.33D-09 MaxDP=1.01D-07 DE=-1.10D-11 OVMax= 1.66D-07

 SCF Done:  E(RwB97XD) =  -188.373995825     A.U. after   13 cycles
            NFock= 13  Conv=0.83D-08     -V/T= 2.0149
 KE= 1.856162819777D+02 PE=-5.383497259144D+02 EE= 1.161498528963D+02
 Leave Link  502 at Thu Aug  5 17:06:33 2021, MaxMem=  2684354560 cpu:         4.1
 (Enter /soft/gaussian/09-e.01/g09/l508.exe)
 QCSCF skips out because SCF is already converged.
 Leave Link  508 at Thu Aug  5 17:06:33 2021, MaxMem=  2684354560 cpu:         0.0
 (Enter /soft/gaussian/09-e.01/g09/l601.exe)
 Copying SCF densities to generalized density rwf, IOpCl= 0 IROHF=0.

 **********************************************************************

            Population analysis using the SCF density.

 **********************************************************************

 Orbital symmetries:
       Occupied  (SG) (SG) (SG) (SG) (SG) (SG) (SG) (PI) (PI) (PI)
                 (PI)
       Virtual   (PI) (PI) (SG) (SG) (SG) (PI) (PI) (SG) (SG) (PI)
                 (PI) (SG) (PI) (PI) (SG) (PI) (PI) (DLTA) (DLTA)
                 (SG) (DLTA) (DLTA) (DLTA) (DLTA) (PI) (PI) (SG)
                 (PI) (PI) (SG) (SG) (SG) (SG) (SG)
 The electronic state is 1-SG.
 Alpha  occ. eigenvalues --  -19.39780 -19.39778 -10.57380  -1.16605  -1.13147
 Alpha  occ. eigenvalues --   -0.69377  -0.58642  -0.53755  -0.53755  -0.44307
 Alpha  occ. eigenvalues --   -0.44307
 Alpha virt. eigenvalues --   -0.01832  -0.01832   0.01528   0.42552   0.55031
 Alpha virt. eigenvalues --    0.58580   0.58580   0.58958   0.89966   0.94005
 Alpha virt. eigenvalues --    0.94005   0.99371   1.08152   1.08152   1.35746
 Alpha virt. eigenvalues --    1.39156   1.39156   1.56118   1.56118   1.83315
 Alpha virt. eigenvalues --    1.83325   1.83325   1.95455   1.95455   1.97223
 Alpha virt. eigenvalues --    1.97223   2.10072   2.62300   2.62300   2.69653
 Alpha virt. eigenvalues --    3.01760   3.60017   4.27865   4.29325
          Condensed to atoms (all electrons):
               1          2          3
     1  O    8.026646   0.379408  -0.018917
     2  C    0.379408   4.466909   0.379408
     3  O   -0.018917   0.379408   8.026647
 Mulliken charges:
               1
     1  O   -0.387138
     2  C    0.774275
     3  O   -0.387138
 Sum of Mulliken charges =  -0.00000
 Mulliken charges with hydrogens summed into heavy atoms:
               1
     1  O   -0.387138
     2  C    0.774275
     3  O   -0.387138
 Electronic spatial extent (au):  <R**2>=            150.2463
 Charge=             -0.0000 electrons
 Dipole moment (field-independent basis, Debye):
    X=             -0.0000    Y=              0.0000    Z=             -0.0000  Tot=              0.0000
 Quadrupole moment (field-independent basis, Debye-Ang):
   XX=            -15.4076   YY=            -15.4076   ZZ=            -19.5648
   XY=              0.0000   XZ=             -0.0000   YZ=              0.0000
 Traceless Quadrupole moment (field-independent basis, Debye-Ang):
   XX=              1.3857   YY=              1.3857   ZZ=             -2.7715
   XY=              0.0000   XZ=             -0.0000   YZ=              0.0000
 Octapole moment (field-independent basis, Debye-Ang**2):
  XXX=             -0.0000  YYY=              0.0000  ZZZ=             -0.0000  XYY=             -0.0000
  XXY=              0.0000  XXZ=             -0.0000  XZZ=             -0.0000  YZZ=              0.0000
  YYZ=             -0.0000  XYZ=              0.0000
 Hexadecapole moment (field-independent basis, Debye-Ang**3):
 XXXX=            -11.7544 YYYY=            -11.7544 ZZZZ=           -136.8915 XXXY=              0.0000
 XXXZ=             -0.0000 YYYX=              0.0000 YYYZ=              0.0000 ZZZX=             -0.0000
 ZZZY=              0.0000 XXYY=             -3.9181 XXZZ=            -25.3277 YYZZ=            -25.3277
 XXYZ=              0.0000 YYXZ=             -0.0000 ZZXY=              0.0000
 N-N= 4.820959521503D+01 E-N=-5.383497241090D+02  KE= 1.856162819777D+02
 Symmetry A1   KE= 1.687274629909D+02
 Symmetry A2   KE= 8.134842525530D-45
 Symmetry B1   KE= 8.444409493406D+00
 Symmetry B2   KE= 8.444409493406D+00
 No NMR shielding tensors so no spin-rotation constants.
 Leave Link  601 at Thu Aug  5 17:06:33 2021, MaxMem=  2684354560 cpu:         1.5
 (Enter /soft/gaussian/09-e.01/g09/l701.exe)
 Compute integral first derivatives.
 ... and contract with generalized density number  0.
 R6Disp: Adding Grimme-D2 dispersion energy 1st derivatives to the gradient.
 Leave Link  701 at Thu Aug  5 17:06:33 2021, MaxMem=  2684354560 cpu:         1.4
 (Enter /soft/gaussian/09-e.01/g09/l702.exe)
 L702 exits ... SP integral derivatives will be done elsewhere.
 Leave Link  702 at Thu Aug  5 17:06:33 2021, MaxMem=  2684354560 cpu:         0.1
 (Enter /soft/gaussian/09-e.01/g09/l703.exe)
 Compute integral first derivatives, UseDBF=F ICtDFT=           0.
 Integral derivatives from FoFJK, PRISM(SPDF).
 Calling FoFJK, ICntrl=      2127 FMM=F ISym2X=1 I1Cent= 0 IOpClX= 0 NMat=1 NMatS=1 NMatT=0.
 FoFJK:  IHMeth= 1 ICntrl=    2127 DoSepK=T KAlg= 0 I1Cent=   0 FoldK=F
 IRaf=         1 NMat=   1 IRICut=       1 DoRegI=T DoRafI=F ISym2E= 1.
 FoFCou: FMM=F IPFlag=           0 FMFlag=      100000 FMFlg1=         800
         NFxFlg=           0 DoJE=F BraDBF=F KetDBF=F FulRan=T
         wScrn=  0.000000 ICntrl=    2527 IOpCl=  0 I1Cent=           0 NGrid=           0
         NMat0=    1 NMatS0=      1 NMatT0=    0 NMatD0=    1 NMtDS0=    0 NMtDT0=    0
 Petite list used in FoFCou.
 Leave Link  703 at Thu Aug  5 17:06:33 2021, MaxMem=  2684354560 cpu:         2.7
 (Enter /soft/gaussian/09-e.01/g09/l716.exe)
 Dipole        =-2.39511621D-22 0.00000000D+00-1.49266546D-06
 ***** Axes restored to original set *****
 -------------------------------------------------------------------
 Center     Atomic                   Forces (Hartrees/Bohr)
 Number     Number              X              Y              Z
 -------------------------------------------------------------------
      1        8           0.000000000   -0.000000000    0.243601222
      2        6           0.000000000   -0.000000000    0.000000053
      3        8          -0.000000000   -0.000000000   -0.243601275
 -------------------------------------------------------------------
 Cartesian Forces:  Max     0.243601275 RMS     0.114834730
 -----------------------------------------------------------------------------------------------
                       Internal Coordinate Forces (Hartree/Bohr or radian)
  Cent   Atom   N1       Length/X         N2         Alpha/Y        N3         Beta/Z          J
 -----------------------------------------------------------------------------------------------
      1  O 
      2  C        1  -0.243601(     1)
         X        2   0.000000(     2)      1  -0.000000(     4)
      3  O        2  -0.243601(     3)      3  -0.000000(     5)      1  -0.000002(     6)     0
 -----------------------------------------------------------------------------------------------
 Internal  Forces:  Max     0.243601275 RMS     0.140643246
 Force constants in Cartesian coordinates: 
                1             2             3             4             5 
      1  0.354642D-01
      2  0.000000D+00  0.354642D-01
      3  0.000000D+00  0.000000D+00  0.448019D+00
      4 -0.709283D-01  0.000000D+00  0.000000D+00  0.141857D+00
      5  0.000000D+00 -0.709283D-01  0.000000D+00  0.000000D+00  0.141857D+00
      6  0.000000D+00  0.000000D+00 -0.448019D+00  0.000000D+00  0.000000D+00
      7  0.354641D-01  0.000000D+00  0.000000D+00 -0.709282D-01  0.000000D+00
      8  0.000000D+00  0.354641D-01  0.000000D+00  0.000000D+00 -0.709282D-01
      9  0.000000D+00  0.000000D+00  0.000000D+00  0.000000D+00  0.000000D+00
                6             7             8             9 
      6  0.896036D+00
      7  0.000000D+00  0.354641D-01
      8  0.000000D+00  0.000000D+00  0.354641D-01
      9 -0.448017D+00  0.000000D+00  0.000000D+00  0.448017D+00
 Force constants in internal coordinates: 
                1             2             3             4             5 
      1  0.448019D+00
      2  0.000000D+00  0.000000D+00
      3  0.000000D+00  0.000000D+00  0.448017D+00
      4  0.000000D+00  0.000000D+00  0.000000D+00  0.250000D+00
      5  0.000000D+00  0.000000D+00  0.000000D+00  0.250000D+00  0.250000D+00
      6  0.000000D+00  0.000000D+00  0.386175D-05  0.000000D+00  0.000000D+00
                6 
      6  0.250000D+00
 Leave Link  716 at Thu Aug  5 17:06:34 2021, MaxMem=  2684354560 cpu:         0.2
 (Enter /soft/gaussian/09-e.01/g09/l103.exe)

 GradGradGradGradGradGradGradGradGradGradGradGradGradGradGradGradGradGrad
 Berny optimization.
 Search for a local minimum.
 Step number   1 out of a maximum of   20
 All quantities printed in internal units (Hartrees-Bohrs-Radians)
 Second derivative matrix not updated -- first step.
 The second derivative matrix:
                          R1        R2        R3        A2        A3
           R1           0.44802
           R2           0.00000   0.00000
           R3          -0.00000   0.00000   0.44802
           A2           0.00000   0.00000  -0.00000   0.25000
           A3          -0.00000   0.00000  -0.00000   0.25000   0.25000
           D3          -0.00000   0.00000   0.00000  -0.00000  -0.00000
                          D3
           D3           0.25000
 ITU=  0
     Eigenvalues ---   -0.00000   0.44802   0.448021000.000001000.00000
     Eigenvalues --- 1000.00000
 Eigenvalue     1 is  -4.44D-16 should be greater than     0.000000 Eigenvector:
                          R2        R1        R3        A2        A3
   1                    1.00000  -0.00000  -0.00000   0.00000   0.00000
                          D3
   1                    0.00000
 RFO step:  Lambda=-1.86920691D-01 EMin=-4.44089210D-16
 Linear search not attempted -- first point.
 Maximum step size (   0.300) exceeded in Quadratic search.
    -- Step size scaled by   0.553
 Variable       Old X    -DE/DX   Delta X   Delta X   Delta X     New X
                                 (Linear)    (Quad)   (Total)
    R1        2.65507  -0.24360   0.00000  -0.21213  -0.21213   2.44293
    R2        1.88973   0.00000   0.00000   0.00000   0.00000   1.88973
    R3        2.65507  -0.24360   0.00000  -0.21213  -0.21213   2.44293
    A2        1.57080  -0.00000   0.00000   0.00000   0.00000   1.57080
    A3        1.57080  -0.00000   0.00000   0.00000   0.00000   1.57080
    D3        3.14159  -0.00000   0.00000   0.00000   0.00000   3.14159
         Item               Value     Threshold  Converged?
 Maximum Force            0.243601     0.000450     NO 
 RMS     Force            0.198900     0.000300     NO 
 Maximum Displacement     0.212132     0.001800     NO 
 RMS     Displacement     0.122474     0.001200     NO 
 Predicted change in Energy=-8.319046D-02
 Lowest energy point so far.  Saving SCF results.
 GradGradGradGradGradGradGradGradGradGradGradGradGradGradGradGradGradGrad

 Leave Link  103 at Thu Aug  5 17:06:34 2021, MaxMem=  2684354560 cpu:         0.1
 (Enter /soft/gaussian/09-e.01/g09/l202.exe)
 ---------------------------------------------------------------------------------------------------
                            Z-MATRIX (ANGSTROMS AND DEGREES)
   CD    Cent   Atom    N1       Length/X        N2       Alpha/Y        N3        Beta/Z          J
 ---------------------------------------------------------------------------------------------------
      1      1  O 
      2      2  C        1   1.292745(     1)
      3         X        2   1.000000(     2)      1   90.000(     4)
      4      3  O        2   1.292745(     3)      3   90.000(     5)      1  180.000(     6)      0
 ---------------------------------------------------------------------------------------------------
                         Z-Matrix orientation:                         
 ---------------------------------------------------------------------
 Center     Atomic      Atomic             Coordinates (Angstroms)
 Number     Number       Type             X           Y           Z
 ---------------------------------------------------------------------
      1          8           0        0.000000    0.000000    0.000000
      2          6           0        0.000000    0.000000    1.292745
      3         -1           0        1.000000    0.000000    1.292745
      4          8           0        0.000000   -0.000005    2.585490
 ---------------------------------------------------------------------
                    Distance matrix (angstroms):
                    1          2          3          4
     1  O    0.000000
     2  C    1.292745   0.000000
     3  X    1.634377   1.000000   0.000000
     4  O    2.585490   1.292745   1.634378   0.000000
 Stoichiometry    CO2
 Framework group  C*V[C*(OCO)]
 Deg. of freedom     2
 Full point group                 C*V     NOp   4
 RotChk:  IX=0 Diff= 0.00D+00
 Largest Abelian subgroup         C2V     NOp   4
 Largest concise Abelian subgroup C1      NOp   1
                         Standard orientation:                         
 ---------------------------------------------------------------------
 Center     Atomic      Atomic             Coordinates (Angstroms)
 Number     Number       Type             X           Y           Z
 ---------------------------------------------------------------------
      1          8           0       -0.000000    0.000000   -1.292745
      2          6           0       -0.000000    0.000000   -0.000000
      3          8           0        0.000000    0.000000    1.292745
 ---------------------------------------------------------------------
 Rotational constants (GHZ):      0.0000000      9.4532142      9.4532142
 Leave Link  202 at Thu Aug  5 17:06:34 2021, MaxMem=  2684354560 cpu:         0.1
 (Enter /soft/gaussian/09-e.01/g09/l301.exe)
 Standard basis: 6-31G(d) (6D, 7F)
 Ernie: Thresh=  0.10000D-02 Tol=  0.10000D-05 Strict=F.
 There are    24 symmetry adapted cartesian basis functions of A1  symmetry.
 There are     3 symmetry adapted cartesian basis functions of A2  symmetry.
 There are     9 symmetry adapted cartesian basis functions of B1  symmetry.
 There are     9 symmetry adapted cartesian basis functions of B2  symmetry.
 There are    24 symmetry adapted basis functions of A1  symmetry.
 There are     3 symmetry adapted basis functions of A2  symmetry.
 There are     9 symmetry adapted basis functions of B1  symmetry.
 There are     9 symmetry adapted basis functions of B2  symmetry.
    45 basis functions,    84 primitive gaussians,    45 cartesian basis functions
    11 alpha electrons       11 beta electrons
       nuclear repulsion energy        52.3960096077 Hartrees.
 IExCor= 4639 DFT=T Ex+Corr=wB97XD ExCW=0 ScaHFX=  1.000000
 ScaDFX=  1.000000  1.000000  1.000000  1.000000 ScalE2=  1.000000  1.000000
 IRadAn=      5 IRanWt=     -1 IRanGd=            0 ICorTp=0 IEmpDi=121
  HFx wShort=  0.000000 wLong=  0.200000 cFull=  0.222036 cShort=  0.000000 cLong=  0.777964
  DFx wShort=  0.000000 wLong=  0.200000 cFull=  0.000000 cShort=  0.000000 cLong=  1.000000
 NAtoms=    3 NActive=    3 NUniq=    3 SFac= 1.00D+00 NAtFMM=   60 NAOKFM=F Big=F
 Integral buffers will be    131072 words long.
 Raffenetti 2 integral format.
 Two-electron integral symmetry is turned on.
 R6Disp:  Grimme-D2 Dispersion energy=       -0.0000887374 Hartrees.
 Nuclear repulsion after empirical dispersion term =       52.3959208704 Hartrees.
 Leave Link  301 at Thu Aug  5 17:06:34 2021, MaxMem=  2684354560 cpu:         0.4
 (Enter /soft/gaussian/09-e.01/g09/l302.exe)
 NPDir=0 NMtPBC=     1 NCelOv=     1 NCel=       1 NClECP=     1 NCelD=      1
         NCelK=      1 NCelE2=     1 NClLst=     1 CellRange=     0.0.
 One-electron integrals computed using PRISM.
 NBasis=    45 RedAO= T EigKep=  6.46D-03  NBF=    24     3     9     9
 NBsUse=    45 1.00D-06 EigRej= -1.00D+00 NBFU=    24     3     9     9
 Precomputing XC quadrature grid using
 IXCGrd= 4 IRadAn=           5 IRanWt=          -1 IRanGd=           0 AccXCQ= 0.00D+00.
 Generated NRdTot=       0 NPtTot=           0 NUsed=           0 NTot=          32
 NSgBfM=    45    45    45    45    45 MxSgAt=     3 MxSgA2=     3.
 Leave Link  302 at Thu Aug  5 17:06:34 2021, MaxMem=  2684354560 cpu:         1.4
 (Enter /soft/gaussian/09-e.01/g09/l303.exe)
 DipDrv:  MaxL=1.
 Leave Link  303 at Thu Aug  5 17:06:34 2021, MaxMem=  2684354560 cpu:         0.2
 (Enter /soft/gaussian/09-e.01/g09/l401.exe)
 Initial guess from the checkpoint file:  "/scratch/kmoore/Gau-15681.chk"
 B after Tr=     0.000000    0.000000    0.000000
         Rot=    1.000000    0.000000    0.000000    0.000000 Ang=   0.00 deg.
 Guess basis will be translated and rotated to current coordinates.
 JPrj=2 DoOrth=T DoCkMO=T.
 Initial guess orbital symmetries:
       Occupied  (SG) (SG) (SG) (SG) (SG) (SG) (SG) (PI) (PI) (PI)
                 (PI)
       Virtual   (SG) (SG) (SG) (SG) (SG) (SG) (SG) (SG) (SG) (DLTA)
                 (DLTA) (DLTA) (SG) (SG) (SG) (SG) (SG) (DLTA)
                 (DLTA) (DLTA) (PI) (PI) (PI) (PI) (PI) (PI) (PI)
                 (PI) (PI) (PI) (PI) (PI) (PI) (PI)
 The electronic state of the initial guess is 1-SG.
 Generating alternative initial guess.
 ExpMin= 1.69D-01 ExpMax= 5.48D+03 ExpMxC= 8.25D+02 IAcc=2 IRadAn=         4 AccDes= 0.00D+00
 Harris functional with IExCor= 4639 and IRadAn=       4 diagonalized for initial guess.
 HarFok:  IExCor= 4639 AccDes= 0.00D+00 IRadAn=         4 IDoV= 1 UseB2=F ITyADJ=14
 ICtDFT=  3500011 ScaDFX=  1.000000  1.000000  1.000000  1.000000
 FoFCou: FMM=F IPFlag=           0 FMFlag=      100000 FMFlg1=           0
         NFxFlg=           0 DoJE=T BraDBF=F KetDBF=T FulRan=T
         wScrn=  0.000000 ICntrl=     500 IOpCl=  0 I1Cent=   200000004 NGrid=           0
         NMat0=    1 NMatS0=      1 NMatT0=    0 NMatD0=    1 NMtDS0=    0 NMtDT0=    0
 Petite list used in FoFCou.
 Harris En= -181.895998409834    
 Leave Link  401 at Thu Aug  5 17:06:34 2021, MaxMem=  2684354560 cpu:         1.8
 (Enter /soft/gaussian/09-e.01/g09/l502.exe)
 Closed shell SCF:
 Using DIIS extrapolation, IDIIS=  1040.
 Integral symmetry usage will be decided dynamically.
 Keep R1 ints in memory in symmetry-blocked form, NReq=1955907.
 IVT=       12848 IEndB=       12848 NGot=  2684354560 MDV=  2684188389
 LenX=  2684188389 LenY=  2684185923
 Requested convergence on RMS density matrix=1.00D-08 within  64 cycles.
 Requested convergence on MAX density matrix=1.00D-06.
 Requested convergence on             energy=1.00D-06.
 No special actions if energy rises.
 FoFCou: FMM=F IPFlag=           0 FMFlag=           0 FMFlg1=           0
         NFxFlg=           0 DoJE=F BraDBF=F KetDBF=F FulRan=T
         wScrn=  0.000000 ICntrl=     600 IOpCl=  0 I1Cent=           0 NGrid=           0
         NMat0=    1 NMatS0=   1035 NMatT0=    0 NMatD0=    1 NMtDS0=    0 NMtDT0=    0
 Petite list used in FoFCou.
 Integral accuracy reduced to 1.0D-05 until final iterations.

 Cycle   1  Pass 0  IDiag  1:
 E= -188.454899036371    
 DIIS: error= 1.48D-02 at cycle   1 NSaved=   1.
 NSaved= 1 IEnMin= 1 EnMin= -188.454899036371     IErMin= 1 ErrMin= 1.48D-02
 ErrMax= 1.48D-02  0.00D+00 EMaxC= 1.00D-01 BMatC= 9.15D-03 BMatP= 9.15D-03
 IDIUse=3 WtCom= 8.52D-01 WtEn= 1.48D-01
 Coeff-Com:  0.100D+01
 Coeff-En:   0.100D+01
 Coeff:      0.100D+01
 Recover alternate guess density for next cycle.
 RMSDP=8.43D-03 MaxDP=7.08D-02              OVMax= 0.00D+00

 Cycle   2  Pass 0  IDiag  1:
 E= -188.398490533141     Delta-E=        0.056408503230 Rises=F Damp=F
 Switch densities from cycles 1 and 2 for lowest energy.
 DIIS: error= 8.77D-02 at cycle   2 NSaved=   2.
 NSaved= 2 IEnMin= 1 EnMin= -188.454899036371     IErMin= 1 ErrMin= 1.48D-02
 ErrMax= 8.77D-02  0.00D+00 EMaxC= 1.00D+00 BMatC= 1.87D-01 BMatP= 9.15D-03
 IDIUse=1 WtCom= 1.00D+00 WtEn= 0.00D+00
 Coeff-Com:  0.101D+01-0.122D-01
 Coeff:      0.101D+01-0.122D-01
 Gap=     1.005 Goal=   None    Shift=    0.000
 RMSDP=2.66D-03 MaxDP=2.85D-02 DE= 5.64D-02 OVMax= 4.52D-02

 Cycle   3  Pass 0  IDiag  1:
 E= -188.466434398419     Delta-E=       -0.067943865277 Rises=F Damp=F
 DIIS: error= 5.07D-03 at cycle   3 NSaved=   3.
 NSaved= 3 IEnMin= 3 EnMin= -188.466434398419     IErMin= 3 ErrMin= 5.07D-03
 ErrMax= 5.07D-03  0.00D+00 EMaxC= 1.00D+00 BMatC= 1.09D-03 BMatP= 9.15D-03
 IDIUse=1 WtCom= 1.00D+00 WtEn= 0.00D+00
 Coeff-Com:  0.412D-01 0.401D-01 0.919D+00
 Coeff:      0.412D-01 0.401D-01 0.919D+00
 Gap=     0.479 Goal=   None    Shift=    0.000
 RMSDP=9.92D-04 MaxDP=9.66D-03 DE=-6.79D-02 OVMax= 1.34D-02

 Cycle   4  Pass 0  IDiag  1:
 E= -188.467136612198     Delta-E=       -0.000702213780 Rises=F Damp=F
 DIIS: error= 4.12D-03 at cycle   4 NSaved=   4.
 NSaved= 4 IEnMin= 4 EnMin= -188.467136612198     IErMin= 4 ErrMin= 4.12D-03
 ErrMax= 4.12D-03  0.00D+00 EMaxC= 1.00D+00 BMatC= 6.98D-04 BMatP= 1.09D-03
 IDIUse=1 WtCom= 1.00D+00 WtEn= 0.00D+00
 Coeff-Com: -0.355D-01 0.173D-01 0.491D+00 0.527D+00
 Coeff:     -0.355D-01 0.173D-01 0.491D+00 0.527D+00
 Gap=     0.484 Goal=   None    Shift=    0.000
 RMSDP=4.14D-04 MaxDP=4.81D-03 DE=-7.02D-04 OVMax= 7.24D-03

 Cycle   5  Pass 0  IDiag  1:
 E= -188.467610119676     Delta-E=       -0.000473507478 Rises=F Damp=F
 DIIS: error= 1.43D-03 at cycle   5 NSaved=   5.
 NSaved= 5 IEnMin= 5 EnMin= -188.467610119676     IErMin= 5 ErrMin= 1.43D-03
 ErrMax= 1.43D-03  0.00D+00 EMaxC= 1.00D+00 BMatC= 4.60D-05 BMatP= 6.98D-04
 IDIUse=1 WtCom= 1.00D+00 WtEn= 0.00D+00
 Coeff-Com: -0.241D-01-0.266D-02 0.454D-02 0.202D+00 0.820D+00
 Coeff:     -0.241D-01-0.266D-02 0.454D-02 0.202D+00 0.820D+00
 Gap=     0.483 Goal=   None    Shift=    0.000
 RMSDP=1.36D-04 MaxDP=1.90D-03 DE=-4.74D-04 OVMax= 3.00D-03

 Cycle   6  Pass 0  IDiag  1:
 E= -188.467659643944     Delta-E=       -0.000049524268 Rises=F Damp=F
 DIIS: error= 2.79D-04 at cycle   6 NSaved=   6.
 NSaved= 6 IEnMin= 6 EnMin= -188.467659643944     IErMin= 6 ErrMin= 2.79D-04
 ErrMax= 2.79D-04  0.00D+00 EMaxC= 1.00D+00 BMatC= 1.41D-06 BMatP= 4.60D-05
 IDIUse=1 WtCom= 1.00D+00 WtEn= 0.00D+00
 Coeff-Com:  0.436D-02 0.393D-04-0.213D-01-0.743D-01-0.479D-01 0.114D+01
 Coeff:      0.436D-02 0.393D-04-0.213D-01-0.743D-01-0.479D-01 0.114D+01
 Gap=     0.483 Goal=   None    Shift=    0.000
 RMSDP=4.62D-05 MaxDP=5.34D-04 DE=-4.95D-05 OVMax= 8.80D-04

 Cycle   7  Pass 0  IDiag  1:
 E= -188.467661473106     Delta-E=       -0.000001829161 Rises=F Damp=F
 DIIS: error= 2.20D-05 at cycle   7 NSaved=   7.
 NSaved= 7 IEnMin= 7 EnMin= -188.467661473106     IErMin= 7 ErrMin= 2.20D-05
 ErrMax= 2.20D-05  0.00D+00 EMaxC= 1.00D+00 BMatC= 1.44D-08 BMatP= 1.41D-06
 IDIUse=1 WtCom= 1.00D+00 WtEn= 0.00D+00
 Coeff-Com:  0.303D-03 0.639D-04 0.107D-03-0.476D-02-0.843D-02-0.346D-01
 Coeff-Com:  0.105D+01
 Coeff:      0.303D-03 0.639D-04 0.107D-03-0.476D-02-0.843D-02-0.346D-01
 Coeff:      0.105D+01
 Gap=     0.483 Goal=   None    Shift=    0.000
 RMSDP=3.88D-06 MaxDP=4.19D-05 DE=-1.83D-06 OVMax= 6.60D-05

 Initial convergence to 1.0D-05 achieved.  Increase integral accuracy.
 Cycle   8  Pass 1  IDiag  1:
 E= -188.467678248156     Delta-E=       -0.000016775051 Rises=F Damp=F
 DIIS: error= 1.29D-05 at cycle   1 NSaved=   1.
 NSaved= 1 IEnMin= 1 EnMin= -188.467678248156     IErMin= 1 ErrMin= 1.29D-05
 ErrMax= 1.29D-05  0.00D+00 EMaxC= 1.00D+00 BMatC= 6.77D-09 BMatP= 6.77D-09
 IDIUse=1 WtCom= 1.00D+00 WtEn= 0.00D+00
 Coeff-Com:  0.100D+01
 Coeff:      0.100D+01
 Gap=     0.483 Goal=   None    Shift=    0.000
 RMSDP=3.88D-06 MaxDP=4.19D-05 DE=-1.68D-05 OVMax= 2.77D-05

 Cycle   9  Pass 1  IDiag  1:
 E= -188.467678254124     Delta-E=       -0.000000005968 Rises=F Damp=F
 DIIS: error= 8.79D-06 at cycle   2 NSaved=   2.
 NSaved= 2 IEnMin= 2 EnMin= -188.467678254124     IErMin= 2 ErrMin= 8.79D-06
 ErrMax= 8.79D-06  0.00D+00 EMaxC= 1.00D+00 BMatC= 1.75D-09 BMatP= 6.77D-09
 IDIUse=1 WtCom= 1.00D+00 WtEn= 0.00D+00
 Coeff-Com:  0.196D+00 0.804D+00
 Coeff:      0.196D+00 0.804D+00
 Gap=     0.483 Goal=   None    Shift=    0.000
 RMSDP=1.04D-06 MaxDP=1.45D-05 DE=-5.97D-09 OVMax= 1.78D-05

 Cycle  10  Pass 1  IDiag  1:
 E= -188.467678254129     Delta-E=       -0.000000000006 Rises=F Damp=F
 DIIS: error= 6.97D-06 at cycle   3 NSaved=   3.
 NSaved= 3 IEnMin= 3 EnMin= -188.467678254129     IErMin= 3 ErrMin= 6.97D-06
 ErrMax= 6.97D-06  0.00D+00 EMaxC= 1.00D+00 BMatC= 1.79D-09 BMatP= 1.75D-09
 IDIUse=1 WtCom= 1.00D+00 WtEn= 0.00D+00
 Coeff-Com: -0.767D-01 0.533D+00 0.544D+00
 Coeff:     -0.767D-01 0.533D+00 0.544D+00
 Gap=     0.483 Goal=   None    Shift=    0.000
 RMSDP=4.81D-07 MaxDP=6.72D-06 DE=-5.63D-12 OVMax= 1.13D-05

 Cycle  11  Pass 1  IDiag  1:
 E= -188.467678255460     Delta-E=       -0.000000001330 Rises=F Damp=F
 DIIS: error= 2.76D-07 at cycle   4 NSaved=   4.
 NSaved= 4 IEnMin= 4 EnMin= -188.467678255460     IErMin= 4 ErrMin= 2.76D-07
 ErrMax= 2.76D-07  0.00D+00 EMaxC= 1.00D+00 BMatC= 1.43D-12 BMatP= 1.75D-09
 IDIUse=1 WtCom= 1.00D+00 WtEn= 0.00D+00
 Coeff-Com:  0.368D-02-0.725D-01-0.555D-01 0.112D+01
 Coeff:      0.368D-02-0.725D-01-0.555D-01 0.112D+01
 Gap=     0.483 Goal=   None    Shift=    0.000
 RMSDP=4.38D-08 MaxDP=6.84D-07 DE=-1.33D-09 OVMax= 5.99D-07

 Cycle  12  Pass 1  IDiag  1:
 E= -188.467678255462     Delta-E=       -0.000000000003 Rises=F Damp=F
 DIIS: error= 1.09D-07 at cycle   5 NSaved=   5.
 NSaved= 5 IEnMin= 5 EnMin= -188.467678255462     IErMin= 5 ErrMin= 1.09D-07
 ErrMax= 1.09D-07  0.00D+00 EMaxC= 1.00D+00 BMatC= 5.37D-13 BMatP= 1.43D-12
 IDIUse=1 WtCom= 1.00D+00 WtEn= 0.00D+00
 Coeff-Com:  0.279D-02-0.435D-01-0.324D-01 0.533D+00 0.540D+00
 Coeff:      0.279D-02-0.435D-01-0.324D-01 0.533D+00 0.540D+00
 Gap=     0.483 Goal=   None    Shift=    0.000
 RMSDP=1.43D-08 MaxDP=1.70D-07 DE=-2.81D-12 OVMax= 3.01D-07

 Cycle  13  Pass 1  IDiag  1:
 E= -188.467678255462     Delta-E=        0.000000000000 Rises=F Damp=F
 DIIS: error= 6.86D-08 at cycle   6 NSaved=   6.
 NSaved= 6 IEnMin= 5 EnMin= -188.467678255462     IErMin= 6 ErrMin= 6.86D-08
 ErrMax= 6.86D-08  0.00D+00 EMaxC= 1.00D+00 BMatC= 1.94D-13 BMatP= 5.37D-13
 IDIUse=1 WtCom= 1.00D+00 WtEn= 0.00D+00
 Coeff-Com:  0.550D-03-0.463D-02-0.911D-03-0.334D-01 0.380D+00 0.659D+00
 Coeff:      0.550D-03-0.463D-02-0.911D-03-0.334D-01 0.380D+00 0.659D+00
 Gap=     0.483 Goal=   None    Shift=    0.000
 RMSDP=6.99D-09 MaxDP=8.26D-08 DE= 1.71D-13 OVMax= 1.22D-07

 SCF Done:  E(RwB97XD) =  -188.467678255     A.U. after   13 cycles
            NFock= 13  Conv=0.70D-08     -V/T= 2.0130
 KE= 1.860400824939D+02 PE=-5.470849801016D+02 EE= 1.201812984819D+02
 Leave Link  502 at Thu Aug  5 17:06:34 2021, MaxMem=  2684354560 cpu:         3.5
 (Enter /soft/gaussian/09-e.01/g09/l508.exe)
 QCSCF skips out because SCF is already converged.
 Leave Link  508 at Thu Aug  5 17:06:34 2021, MaxMem=  2684354560 cpu:         0.0
 (Enter /soft/gaussian/09-e.01/g09/l701.exe)
 Compute integral first derivatives.
 ... and contract with generalized density number  0.
 R6Disp: Adding Grimme-D2 dispersion energy 1st derivatives to the gradient.
 Leave Link  701 at Thu Aug  5 17:06:35 2021, MaxMem=  2684354560 cpu:         1.4
 (Enter /soft/gaussian/09-e.01/g09/l702.exe)
 L702 exits ... SP integral derivatives will be done elsewhere.
 Leave Link  702 at Thu Aug  5 17:06:35 2021, MaxMem=  2684354560 cpu:         0.1
 (Enter /soft/gaussian/09-e.01/g09/l703.exe)
 Compute integral first derivatives, UseDBF=F ICtDFT=           0.
 Integral derivatives from FoFJK, PRISM(SPDF).
 Calling FoFJK, ICntrl=      2127 FMM=F ISym2X=1 I1Cent= 0 IOpClX= 0 NMat=1 NMatS=1 NMatT=0.
 FoFJK:  IHMeth= 1 ICntrl=    2127 DoSepK=T KAlg= 0 I1Cent=   0 FoldK=F
 IRaf=         1 NMat=   1 IRICut=       1 DoRegI=T DoRafI=F ISym2E= 1.
 FoFCou: FMM=F IPFlag=           0 FMFlag=      100000 FMFlg1=         800
         NFxFlg=           0 DoJE=F BraDBF=F KetDBF=F FulRan=T
         wScrn=  0.000000 ICntrl=    2527 IOpCl=  0 I1Cent=           0 NGrid=           0
         NMat0=    1 NMatS0=      1 NMatT0=    0 NMatD0=    1 NMtDS0=    0 NMtDT0=    0
 Petite list used in FoFCou.
 Leave Link  703 at Thu Aug  5 17:06:35 2021, MaxMem=  2684354560 cpu:         2.6
 (Enter /soft/gaussian/09-e.01/g09/l716.exe)
 Dipole        =-2.28900672D-22 0.00000000D+00-1.17319082D-06
 ***** Axes restored to original set *****
 -------------------------------------------------------------------
 Center     Atomic                   Forces (Hartrees/Bohr)
 Number     Number              X              Y              Z
 -------------------------------------------------------------------
      1        8          -0.000000000   -0.000000000    0.186643497
      2        6           0.000000000   -0.000000000    0.000000442
      3        8          -0.000000000   -0.000000000   -0.186643939
 -------------------------------------------------------------------
 Cartesian Forces:  Max     0.186643939 RMS     0.087984693
 -----------------------------------------------------------------------------------------------
                       Internal Coordinate Forces (Hartree/Bohr or radian)
  Cent   Atom   N1       Length/X         N2         Alpha/Y        N3         Beta/Z          J
 -----------------------------------------------------------------------------------------------
      1  O 
      2  C        1  -0.186643(     1)
         X        2   0.000000(     2)      1   0.000000(     4)
      3  O        2  -0.186644(     3)      3  -0.000000(     5)      1  -0.000002(     6)     0
 -----------------------------------------------------------------------------------------------
 Internal  Forces:  Max     0.186643939 RMS     0.107758801
 Leave Link  716 at Thu Aug  5 17:06:35 2021, MaxMem=  2684354560 cpu:         0.2
 (Enter /soft/gaussian/09-e.01/g09/l103.exe)

 GradGradGradGradGradGradGradGradGradGradGradGradGradGradGradGradGradGrad
 Berny optimization.
 Search for a local minimum.
 Step number   2 out of a maximum of   20
 All quantities printed in internal units (Hartrees-Bohrs-Radians)
 Update second derivatives using D2CorN and points    1    2
 DE= -9.37D-02 DEPred=-8.32D-02 R= 1.13D+00
 TightC=F SS=  1.41D+00  RLast= 3.00D-01 DXNew= 5.0454D-01 9.0000D-01
 Trust test= 1.13D+00 RLast= 3.00D-01 DXMaxT set to 5.05D-01
 The second derivative matrix:
                          R1        R2        R3        A2        A3
           R1           0.35826
           R2           0.00000   0.00000
           R3          -0.08976   0.00000   0.35826
           A2           0.00000  -0.00000   0.00000   0.25000
           A3          -0.00000  -0.00000  -0.00000   0.25000   0.25000
           D3          -0.00000   0.00000   0.00000  -0.00000  -0.00000
                          D3
           D3           0.25000
 ITU=  1  0
     Eigenvalues ---    0.00000   0.26850   0.448021000.000001000.00000
     Eigenvalues --- 1000.00000
 RFO step:  Lambda= 0.00000000D+00 EMin= 2.22044605D-16
 Quartic linear search produced a step of  1.18530.
 Maximum step size (   0.505) exceeded in Quadratic search.
    -- Step size scaled by   0.898
 Variable       Old X    -DE/DX   Delta X   Delta X   Delta X     New X
                                 (Linear)    (Quad)   (Total)
    R1        2.44293  -0.18664  -0.25144   0.00000  -0.25144   2.19150
    R2        1.88973   0.00000   0.00000  -0.50454  -0.50454   1.38519
    R3        2.44293  -0.18664  -0.25144  -0.00000  -0.25144   2.19149
    A2        1.57080   0.00000   0.00000   0.00000   0.00000   1.57080
    A3        1.57080  -0.00000   0.00000   0.00000   0.00000   1.57080
    D3        3.14159  -0.00000   0.00000   0.00000   0.00000   3.14159
         Item               Value     Threshold  Converged?
 Maximum Force            0.186644     0.000450     NO 
 RMS     Force            0.152394     0.000300     NO 
 Maximum Displacement     0.504538     0.001800     NO 
 RMS     Displacement     0.251993     0.001200     NO 
 Predicted change in Energy=-7.688408D-02
 Lowest energy point so far.  Saving SCF results.
 GradGradGradGradGradGradGradGradGradGradGradGradGradGradGradGradGradGrad

 Leave Link  103 at Thu Aug  5 17:06:35 2021, MaxMem=  2684354560 cpu:         0.1
 (Enter /soft/gaussian/09-e.01/g09/l202.exe)
 ---------------------------------------------------------------------------------------------------
                            Z-MATRIX (ANGSTROMS AND DEGREES)
   CD    Cent   Atom    N1       Length/X        N2       Alpha/Y        N3        Beta/Z          J
 ---------------------------------------------------------------------------------------------------
      1      1  O 
      2      2  C        1   1.159689(     1)
      3         X        2   0.733010(     2)      1   90.000(     4)
      4      3  O        2   1.159689(     3)      3   90.000(     5)      1  180.000(     6)      0
 ---------------------------------------------------------------------------------------------------
                         Z-Matrix orientation:                         
 ---------------------------------------------------------------------
 Center     Atomic      Atomic             Coordinates (Angstroms)
 Number     Number       Type             X           Y           Z
 ---------------------------------------------------------------------
      1          8           0        0.000000    0.000000    0.000000
      2          6           0        0.000000    0.000000    1.159689
      3         -1           0        0.733010    0.000000    1.159689
      4          8           0        0.000000   -0.000004    2.319378
 ---------------------------------------------------------------------
                    Distance matrix (angstroms):
                    1          2          3          4
     1  O    0.000000
     2  C    1.159689   0.000000
     3  X    1.371927   0.733010   0.000000
     4  O    2.319378   1.159689   1.371926   0.000000
 Stoichiometry    CO2
 Framework group  C*V[C*(OCO)]
 Deg. of freedom     2
 Full point group                 C*V     NOp   4
 RotChk:  IX=1 Diff= 0.00D+00
 Largest Abelian subgroup         C2V     NOp   4
 Largest concise Abelian subgroup C1      NOp   1
                         Standard orientation:                         
 ---------------------------------------------------------------------
 Center     Atomic      Atomic             Coordinates (Angstroms)
 Number     Number       Type             X           Y           Z
 ---------------------------------------------------------------------
      1          8           0        0.000000    0.000000   -1.159689
      2          6           0        0.000000    0.000000    0.000000
      3          8           0       -0.000000    0.000000    1.159689
 ---------------------------------------------------------------------
 Rotational constants (GHZ):      0.0000000     11.7468690     11.7468690
 Leave Link  202 at Thu Aug  5 17:06:35 2021, MaxMem=  2684354560 cpu:         0.1
 (Enter /soft/gaussian/09-e.01/g09/l301.exe)
 Standard basis: 6-31G(d) (6D, 7F)
 Ernie: Thresh=  0.10000D-02 Tol=  0.10000D-05 Strict=F.
 There are    24 symmetry adapted cartesian basis functions of A1  symmetry.
 There are     3 symmetry adapted cartesian basis functions of A2  symmetry.
 There are     9 symmetry adapted cartesian basis functions of B1  symmetry.
 There are     9 symmetry adapted cartesian basis functions of B2  symmetry.
 There are    24 symmetry adapted basis functions of A1  symmetry.
 There are     3 symmetry adapted basis functions of A2  symmetry.
 There are     9 symmetry adapted basis functions of B1  symmetry.
 There are     9 symmetry adapted basis functions of B2  symmetry.
    45 basis functions,    84 primitive gaussians,    45 cartesian basis functions
    11 alpha electrons       11 beta electrons
       nuclear repulsion energy        58.4076222310 Hartrees.
 IExCor= 4639 DFT=T Ex+Corr=wB97XD ExCW=0 ScaHFX=  1.000000
 ScaDFX=  1.000000  1.000000  1.000000  1.000000 ScalE2=  1.000000  1.000000
 IRadAn=      5 IRanWt=     -1 IRanGd=            0 ICorTp=0 IEmpDi=121
  HFx wShort=  0.000000 wLong=  0.200000 cFull=  0.222036 cShort=  0.000000 cLong=  0.777964
  DFx wShort=  0.000000 wLong=  0.200000 cFull=  0.000000 cShort=  0.000000 cLong=  1.000000
 NAtoms=    3 NActive=    3 NUniq=    3 SFac= 1.00D+00 NAtFMM=   60 NAOKFM=F Big=F
 Integral buffers will be    131072 words long.
 Raffenetti 2 integral format.
 Two-electron integral symmetry is turned on.
 R6Disp:  Grimme-D2 Dispersion energy=       -0.0000496164 Hartrees.
 Nuclear repulsion after empirical dispersion term =       58.4075726146 Hartrees.
 Leave Link  301 at Thu Aug  5 17:06:35 2021, MaxMem=  2684354560 cpu:         0.4
 (Enter /soft/gaussian/09-e.01/g09/l302.exe)
 NPDir=0 NMtPBC=     1 NCelOv=     1 NCel=       1 NClECP=     1 NCelD=      1
         NCelK=      1 NCelE2=     1 NClLst=     1 CellRange=     0.0.
 One-electron integrals computed using PRISM.
 NBasis=    45 RedAO= T EigKep=  5.60D-03  NBF=    24     3     9     9
 NBsUse=    45 1.00D-06 EigRej= -1.00D+00 NBFU=    24     3     9     9
 Precomputing XC quadrature grid using
 IXCGrd= 4 IRadAn=           5 IRanWt=          -1 IRanGd=           0 AccXCQ= 0.00D+00.
 Generated NRdTot=       0 NPtTot=           0 NUsed=           0 NTot=          32
 NSgBfM=    45    45    45    45    45 MxSgAt=     3 MxSgA2=     3.
 Leave Link  302 at Thu Aug  5 17:06:35 2021, MaxMem=  2684354560 cpu:         1.4
 (Enter /soft/gaussian/09-e.01/g09/l303.exe)
 DipDrv:  MaxL=1.
 Leave Link  303 at Thu Aug  5 17:06:35 2021, MaxMem=  2684354560 cpu:         0.1
 (Enter /soft/gaussian/09-e.01/g09/l401.exe)
 Initial guess from the checkpoint file:  "/scratch/kmoore/Gau-15681.chk"
 B after Tr=    -0.000000    0.000000   -0.000000
         Rot=    1.000000    0.000000    0.000000    0.000000 Ang=   0.00 deg.
 Guess basis will be translated and rotated to current coordinates.
 JPrj=2 DoOrth=T DoCkMO=T.
 Initial guess orbital symmetries:
       Occupied  (SG) (SG) (SG) (SG) (SG) (SG) (SG) (PI) (PI) (PI)
                 (PI)
       Virtual   (SG) (SG) (SG) (SG) (SG) (SG) (SG) (SG) (DLTA)
                 (SG) (DLTA) (DLTA) (SG) (SG) (SG) (SG) (SG) (DLTA)
                 (DLTA) (DLTA) (PI) (PI) (PI) (PI) (PI) (PI) (PI)
                 (PI) (PI) (PI) (PI) (PI) (PI) (PI)
 The electronic state of the initial guess is 1-SG.
 Generating alternative initial guess.
 ExpMin= 1.69D-01 ExpMax= 5.48D+03 ExpMxC= 8.25D+02 IAcc=2 IRadAn=         4 AccDes= 0.00D+00
 Harris functional with IExCor= 4639 and IRadAn=       4 diagonalized for initial guess.
 HarFok:  IExCor= 4639 AccDes= 0.00D+00 IRadAn=         4 IDoV= 1 UseB2=F ITyADJ=14
 ICtDFT=  3500011 ScaDFX=  1.000000  1.000000  1.000000  1.000000
 FoFCou: FMM=F IPFlag=           0 FMFlag=      100000 FMFlg1=           0
         NFxFlg=           0 DoJE=T BraDBF=F KetDBF=T FulRan=T
         wScrn=  0.000000 ICntrl=     500 IOpCl=  0 I1Cent=   200000004 NGrid=           0
         NMat0=    1 NMatS0=      1 NMatT0=    0 NMatD0=    1 NMtDS0=    0 NMtDT0=    0
 Petite list used in FoFCou.
 Harris En= -181.872117640745    
 Leave Link  401 at Thu Aug  5 17:06:35 2021, MaxMem=  2684354560 cpu:         1.7
 (Enter /soft/gaussian/09-e.01/g09/l502.exe)
 Closed shell SCF:
 Using DIIS extrapolation, IDIIS=  1040.
 Integral symmetry usage will be decided dynamically.
 Keep R1 ints in memory in symmetry-blocked form, NReq=1955907.
 IVT=       12848 IEndB=       12848 NGot=  2684354560 MDV=  2684188389
 LenX=  2684188389 LenY=  2684185923
 Requested convergence on RMS density matrix=1.00D-08 within  64 cycles.
 Requested convergence on MAX density matrix=1.00D-06.
 Requested convergence on             energy=1.00D-06.
 No special actions if energy rises.
 FoFCou: FMM=F IPFlag=           0 FMFlag=           0 FMFlg1=           0
         NFxFlg=           0 DoJE=F BraDBF=F KetDBF=F FulRan=T
         wScrn=  0.000000 ICntrl=     600 IOpCl=  0 I1Cent=           0 NGrid=           0
         NMat0=    1 NMatS0=   1035 NMatT0=    0 NMatD0=    1 NMtDS0=    0 NMtDT0=    0
 Petite list used in FoFCou.
 Integral accuracy reduced to 1.0D-05 until final iterations.

 Cycle   1  Pass 0  IDiag  1:
 E= -188.497941074937    
 DIIS: error= 1.95D-02 at cycle   1 NSaved=   1.
 NSaved= 1 IEnMin= 1 EnMin= -188.497941074937     IErMin= 1 ErrMin= 1.95D-02
 ErrMax= 1.95D-02  0.00D+00 EMaxC= 1.00D-01 BMatC= 1.85D-02 BMatP= 1.85D-02
 IDIUse=3 WtCom= 8.05D-01 WtEn= 1.95D-01
 Coeff-Com:  0.100D+01
 Coeff-En:   0.100D+01
 Coeff:      0.100D+01
 Recover alternate guess density for next cycle.
 RMSDP=9.10D-03 MaxDP=9.22D-02              OVMax= 0.00D+00

 Cycle   2  Pass 0  IDiag  1:
 E= -188.481802560086     Delta-E=        0.016138514851 Rises=F Damp=F
 Switch densities from cycles 1 and 2 for lowest energy.
 DIIS: error= 6.15D-02 at cycle   2 NSaved=   2.
 NSaved= 2 IEnMin= 1 EnMin= -188.497941074937     IErMin= 1 ErrMin= 1.95D-02
 ErrMax= 6.15D-02  0.00D+00 EMaxC= 1.00D+00 BMatC= 1.45D-01 BMatP= 1.85D-02
 IDIUse=1 WtCom= 1.00D+00 WtEn= 0.00D+00
 Coeff-Com:  0.937D+00 0.626D-01
 Coeff:      0.937D+00 0.626D-01
 Gap=     1.086 Goal=   None    Shift=    0.000
 RMSDP=4.33D-03 MaxDP=3.58D-02 DE= 1.61D-02 OVMax= 5.31D-02

 Cycle   3  Pass 0  IDiag  1:
 E= -188.517860220661     Delta-E=       -0.036057660575 Rises=F Damp=F
 DIIS: error= 8.10D-03 at cycle   3 NSaved=   3.
 NSaved= 3 IEnMin= 3 EnMin= -188.517860220661     IErMin= 3 ErrMin= 8.10D-03
 ErrMax= 8.10D-03  0.00D+00 EMaxC= 1.00D+00 BMatC= 2.33D-03 BMatP= 1.85D-02
 IDIUse=1 WtCom= 1.00D+00 WtEn= 0.00D+00
 Coeff-Com:  0.108D+00 0.609D-01 0.831D+00
 Coeff:      0.108D+00 0.609D-01 0.831D+00
 Gap=     0.569 Goal=   None    Shift=    0.000
 RMSDP=1.40D-03 MaxDP=1.09D-02 DE=-3.61D-02 OVMax= 1.29D-02

 Cycle   4  Pass 0  IDiag  1:
 E= -188.519607286018     Delta-E=       -0.001747065357 Rises=F Damp=F
 DIIS: error= 3.23D-03 at cycle   4 NSaved=   4.
 NSaved= 4 IEnMin= 4 EnMin= -188.519607286018     IErMin= 4 ErrMin= 3.23D-03
 ErrMax= 3.23D-03  0.00D+00 EMaxC= 1.00D+00 BMatC= 3.90D-04 BMatP= 2.33D-03
 IDIUse=1 WtCom= 1.00D+00 WtEn= 0.00D+00
 Coeff-Com: -0.126D-01 0.113D-01 0.277D+00 0.724D+00
 Coeff:     -0.126D-01 0.113D-01 0.277D+00 0.724D+00
 Gap=     0.574 Goal=   None    Shift=    0.000
 RMSDP=3.97D-04 MaxDP=4.43D-03 DE=-1.75D-03 OVMax= 6.29D-03

 Cycle   5  Pass 0  IDiag  1:
 E= -188.519830621707     Delta-E=       -0.000223335689 Rises=F Damp=F
 DIIS: error= 1.64D-03 at cycle   5 NSaved=   5.
 NSaved= 5 IEnMin= 5 EnMin= -188.519830621707     IErMin= 5 ErrMin= 1.64D-03
 ErrMax= 1.64D-03  0.00D+00 EMaxC= 1.00D+00 BMatC= 8.50D-05 BMatP= 3.90D-04
 IDIUse=1 WtCom= 1.00D+00 WtEn= 0.00D+00
 Coeff-Com: -0.219D-01-0.269D-02 0.192D-01 0.349D+00 0.656D+00
 Coeff:     -0.219D-01-0.269D-02 0.192D-01 0.349D+00 0.656D+00
 Gap=     0.572 Goal=   None    Shift=    0.000
 RMSDP=1.44D-04 MaxDP=1.95D-03 DE=-2.23D-04 OVMax= 2.79D-03

 Cycle   6  Pass 0  IDiag  1:
 E= -188.519897548736     Delta-E=       -0.000066927029 Rises=F Damp=F
 DIIS: error= 2.29D-04 at cycle   6 NSaved=   6.
 NSaved= 6 IEnMin= 6 EnMin= -188.519897548736     IErMin= 6 ErrMin= 2.29D-04
 ErrMax= 2.29D-04  0.00D+00 EMaxC= 1.00D+00 BMatC= 9.26D-07 BMatP= 8.50D-05
 IDIUse=1 WtCom= 1.00D+00 WtEn= 0.00D+00
 Coeff-Com:  0.303D-02 0.740D-04-0.143D-01-0.813D-01-0.271D-01 0.112D+01
 Coeff:      0.303D-02 0.740D-04-0.143D-01-0.813D-01-0.271D-01 0.112D+01
 Gap=     0.572 Goal=   None    Shift=    0.000
 RMSDP=5.08D-05 MaxDP=5.11D-04 DE=-6.69D-05 OVMax= 7.18D-04

 Cycle   7  Pass 0  IDiag  1:
 E= -188.519898727743     Delta-E=       -0.000001179007 Rises=F Damp=F
 DIIS: error= 1.12D-05 at cycle   7 NSaved=   7.
 NSaved= 7 IEnMin= 7 EnMin= -188.519898727743     IErMin= 7 ErrMin= 1.12D-05
 ErrMax= 1.12D-05  0.00D+00 EMaxC= 1.00D+00 BMatC= 2.90D-09 BMatP= 9.26D-07
 IDIUse=1 WtCom= 1.00D+00 WtEn= 0.00D+00
 Coeff-Com:  0.180D-03 0.459D-04-0.178D-03-0.358D-02-0.601D-02-0.234D-01
 Coeff-Com:  0.103D+01
 Coeff:      0.180D-03 0.459D-04-0.178D-03-0.358D-02-0.601D-02-0.234D-01
 Coeff:      0.103D+01
 Gap=     0.572 Goal=   None    Shift=    0.000
 RMSDP=3.98D-06 MaxDP=4.39D-05 DE=-1.18D-06 OVMax= 4.88D-05

 Initial convergence to 1.0D-05 achieved.  Increase integral accuracy.
 Cycle   8  Pass 1  IDiag  1:
 E= -188.519892977364     Delta-E=        0.000005750379 Rises=F Damp=F
 DIIS: error= 3.99D-05 at cycle   1 NSaved=   1.
 NSaved= 1 IEnMin= 1 EnMin= -188.519892977364     IErMin= 1 ErrMin= 3.99D-05
 ErrMax= 3.99D-05  0.00D+00 EMaxC= 1.00D+00 BMatC= 2.03D-08 BMatP= 2.03D-08
 IDIUse=1 WtCom= 1.00D+00 WtEn= 0.00D+00
 Coeff-Com:  0.100D+01
 Coeff:      0.100D+01
 Gap=     0.572 Goal=   None    Shift=    0.000
 RMSDP=3.98D-06 MaxDP=4.39D-05 DE= 5.75D-06 OVMax= 3.29D-05

 Cycle   9  Pass 1  IDiag  1:
 E= -188.519892991222     Delta-E=       -0.000000013857 Rises=F Damp=F
 DIIS: error= 4.43D-06 at cycle   2 NSaved=   2.
 NSaved= 2 IEnMin= 2 EnMin= -188.519892991222     IErMin= 2 ErrMin= 4.43D-06
 ErrMax= 4.43D-06  0.00D+00 EMaxC= 1.00D+00 BMatC= 2.97D-10 BMatP= 2.03D-08
 IDIUse=1 WtCom= 1.00D+00 WtEn= 0.00D+00
 Coeff-Com: -0.100D+00 0.110D+01
 Coeff:     -0.100D+00 0.110D+01
 Gap=     0.572 Goal=   None    Shift=    0.000
 RMSDP=6.61D-07 MaxDP=1.29D-05 DE=-1.39D-08 OVMax= 7.80D-06

 Cycle  10  Pass 1  IDiag  1:
 E= -188.519892991589     Delta-E=       -0.000000000367 Rises=F Damp=F
 DIIS: error= 7.39D-07 at cycle   3 NSaved=   3.
 NSaved= 3 IEnMin= 3 EnMin= -188.519892991589     IErMin= 3 ErrMin= 7.39D-07
 ErrMax= 7.39D-07  0.00D+00 EMaxC= 1.00D+00 BMatC= 1.84D-11 BMatP= 2.97D-10
 IDIUse=1 WtCom= 1.00D+00 WtEn= 0.00D+00
 Coeff-Com: -0.205D-01 0.167D+00 0.854D+00
 Coeff:     -0.205D-01 0.167D+00 0.854D+00
 Gap=     0.572 Goal=   None    Shift=    0.000
 RMSDP=1.10D-07 MaxDP=1.72D-06 DE=-3.67D-10 OVMax= 2.04D-06

 Cycle  11  Pass 1  IDiag  1:
 E= -188.519892991594     Delta-E=       -0.000000000006 Rises=F Damp=F
 DIIS: error= 5.61D-07 at cycle   4 NSaved=   4.
 NSaved= 4 IEnMin= 4 EnMin= -188.519892991594     IErMin= 4 ErrMin= 5.61D-07
 ErrMax= 5.61D-07  0.00D+00 EMaxC= 1.00D+00 BMatC= 1.90D-11 BMatP= 1.84D-11
 IDIUse=1 WtCom= 1.00D+00 WtEn= 0.00D+00
 Coeff-Com:  0.219D-02-0.699D-01 0.515D+00 0.553D+00
 Coeff:      0.219D-02-0.699D-01 0.515D+00 0.553D+00
 Gap=     0.572 Goal=   None    Shift=    0.000
 RMSDP=6.08D-08 MaxDP=8.08D-07 DE=-5.71D-12 OVMax= 8.78D-07

 Cycle  12  Pass 1  IDiag  1:
 E= -188.519892991607     Delta-E=       -0.000000000013 Rises=F Damp=F
 DIIS: error= 8.27D-08 at cycle   5 NSaved=   5.
 NSaved= 5 IEnMin= 5 EnMin= -188.519892991607     IErMin= 5 ErrMin= 8.27D-08
 ErrMax= 8.27D-08  0.00D+00 EMaxC= 1.00D+00 BMatC= 4.33D-13 BMatP= 1.84D-11
 IDIUse=1 WtCom= 1.00D+00 WtEn= 0.00D+00
 Coeff-Com:  0.208D-02-0.375D-01 0.145D+00 0.191D+00 0.699D+00
 Coeff:      0.208D-02-0.375D-01 0.145D+00 0.191D+00 0.699D+00
 Gap=     0.572 Goal=   None    Shift=    0.000
 RMSDP=1.51D-08 MaxDP=1.96D-07 DE=-1.26D-11 OVMax= 2.65D-07

 Cycle  13  Pass 1  IDiag  1:
 E= -188.519892991607     Delta-E=       -0.000000000000 Rises=F Damp=F
 DIIS: error= 5.75D-08 at cycle   6 NSaved=   6.
 NSaved= 6 IEnMin= 6 EnMin= -188.519892991607     IErMin= 6 ErrMin= 5.75D-08
 ErrMax= 5.75D-08  0.00D+00 EMaxC= 1.00D+00 BMatC= 2.15D-13 BMatP= 4.33D-13
 IDIUse=1 WtCom= 1.00D+00 WtEn= 0.00D+00
 Coeff-Com:  0.595D-03-0.620D-02-0.762D-02 0.436D-02 0.430D+00 0.579D+00
 Coeff:      0.595D-03-0.620D-02-0.762D-02 0.436D-02 0.430D+00 0.579D+00
 Gap=     0.572 Goal=   None    Shift=    0.000
 RMSDP=6.20D-09 MaxDP=9.62D-08 DE=-3.41D-13 OVMax= 1.10D-07

 SCF Done:  E(RwB97XD) =  -188.519892992     A.U. after   13 cycles
            NFock= 13  Conv=0.62D-08     -V/T= 2.0082
 KE= 1.869811887571D+02 PE=-5.598412010179D+02 EE= 1.259325466546D+02
 Leave Link  502 at Thu Aug  5 17:06:36 2021, MaxMem=  2684354560 cpu:         3.5
 (Enter /soft/gaussian/09-e.01/g09/l508.exe)
 QCSCF skips out because SCF is already converged.
 Leave Link  508 at Thu Aug  5 17:06:36 2021, MaxMem=  2684354560 cpu:         0.0
 (Enter /soft/gaussian/09-e.01/g09/l701.exe)
 Compute integral first derivatives.
 ... and contract with generalized density number  0.
 R6Disp: Adding Grimme-D2 dispersion energy 1st derivatives to the gradient.
 Leave Link  701 at Thu Aug  5 17:06:36 2021, MaxMem=  2684354560 cpu:         1.4
 (Enter /soft/gaussian/09-e.01/g09/l702.exe)
 L702 exits ... SP integral derivatives will be done elsewhere.
 Leave Link  702 at Thu Aug  5 17:06:36 2021, MaxMem=  2684354560 cpu:         0.2
 (Enter /soft/gaussian/09-e.01/g09/l703.exe)
 Compute integral first derivatives, UseDBF=F ICtDFT=           0.
 Integral derivatives from FoFJK, PRISM(SPDF).
 Calling FoFJK, ICntrl=      2127 FMM=F ISym2X=1 I1Cent= 0 IOpClX= 0 NMat=1 NMatS=1 NMatT=0.
 FoFJK:  IHMeth= 1 ICntrl=    2127 DoSepK=T KAlg= 0 I1Cent=   0 FoldK=F
 IRaf=         1 NMat=   1 IRICut=       1 DoRegI=T DoRafI=F ISym2E= 1.
 FoFCou: FMM=F IPFlag=           0 FMFlag=      100000 FMFlg1=         800
         NFxFlg=           0 DoJE=F BraDBF=F KetDBF=F FulRan=T
         wScrn=  0.000000 ICntrl=    2527 IOpCl=  0 I1Cent=           0 NGrid=           0
         NMat0=    1 NMatS0=      1 NMatT0=    0 NMatD0=    1 NMtDS0=    0 NMtDT0=    0
 Petite list used in FoFCou.
 Leave Link  703 at Thu Aug  5 17:06:36 2021, MaxMem=  2684354560 cpu:         2.6
 (Enter /soft/gaussian/09-e.01/g09/l716.exe)
 Dipole        = 2.11856367D-22 0.00000000D+00 6.56218059D-07
 ***** Axes restored to original set *****
 -------------------------------------------------------------------
 Center     Atomic                   Forces (Hartrees/Bohr)
 Number     Number              X              Y              Z
 -------------------------------------------------------------------
      1        8           0.000000000   -0.000000000   -0.011404162
      2        6          -0.000000000   -0.000000000   -0.000000568
      3        8           0.000000000   -0.000000000    0.011404730
 -------------------------------------------------------------------
 Cartesian Forces:  Max     0.011404730 RMS     0.005376107
 -----------------------------------------------------------------------------------------------
                       Internal Coordinate Forces (Hartree/Bohr or radian)
  Cent   Atom   N1       Length/X         N2         Alpha/Y        N3         Beta/Z          J
 -----------------------------------------------------------------------------------------------
      1  O 
      2  C        1   0.011404(     1)
         X        2   0.000000(     2)      1   0.000000(     4)
      3  O        2   0.011405(     3)      3   0.000000(     5)      1   0.000000(     6)     0
 -----------------------------------------------------------------------------------------------
 Internal  Forces:  Max     0.011404730 RMS     0.006584360
 Leave Link  716 at Thu Aug  5 17:06:36 2021, MaxMem=  2684354560 cpu:         0.2
 (Enter /soft/gaussian/09-e.01/g09/l103.exe)

 GradGradGradGradGradGradGradGradGradGradGradGradGradGradGradGradGradGrad
 Berny optimization.
 Search for a local minimum.
 Step number   3 out of a maximum of   20
 All quantities printed in internal units (Hartrees-Bohrs-Radians)
 Update second derivatives using D2CorN and points    3
 DE= -5.22D-02 DEPred=-7.69D-02 R= 6.79D-01
 TightC=F SS=  1.41D+00  RLast= 6.17D-01 DXNew= 8.4853D-01 1.8518D+00
 Trust test= 6.79D-01 RLast= 6.17D-01 DXMaxT set to 8.49D-01
 The second derivative matrix:
                          R1        R2        R3        A2        A3
           R1           0.35826
           R2           0.00000   0.00000
           R3          -0.08976   0.00000   0.35826
           A2           0.00000  -0.00000   0.00000   0.25000
           A3          -0.00000  -0.00000  -0.00000   0.25000   0.25000
           D3          -0.00000   0.00000   0.00000  -0.00000  -0.00000
                          D3
           D3           0.25000
 ITU=  1  1  0
     Eigenvalues ---    0.00000   0.26850   0.448021000.000001000.00000
     Eigenvalues --- 1000.00000
 RFO step:  Lambda=-2.58579994D-03 EMin= 2.22044605D-16
 Quartic linear search produced a step of -0.03816.
 Maximum step size (   0.849) exceeded in Quadratic search.
    -- Step size scaled by   0.857
 Variable       Old X    -DE/DX   Delta X   Delta X   Delta X     New X
                                 (Linear)    (Quad)   (Total)
    R1        2.19150   0.01140   0.00960   0.00812   0.01772   2.20921
    R2        1.38519   0.00000   0.01925  -0.84845  -0.82920   0.55599
    R3        2.19149   0.01140   0.00960   0.00812   0.01772   2.20921
    A2        1.57080   0.00000   0.00000   0.00000   0.00000   1.57080
    A3        1.57080   0.00000   0.00000   0.00000   0.00000   1.57080
    D3        3.14159   0.00000   0.00000   0.00000   0.00000   3.14159
         Item               Value     Threshold  Converged?
 Maximum Force            0.011405     0.000450     NO 
 RMS     Force            0.009312     0.000300     NO 
 Maximum Displacement     0.829195     0.001800     NO 
 RMS     Displacement     0.338672     0.001200     NO 
 Predicted change in Energy=-3.198065D-04
 Lowest energy point so far.  Saving SCF results.
 GradGradGradGradGradGradGradGradGradGradGradGradGradGradGradGradGradGrad

 Leave Link  103 at Thu Aug  5 17:06:36 2021, MaxMem=  2684354560 cpu:         0.1
 (Enter /soft/gaussian/09-e.01/g09/l202.exe)
 ---------------------------------------------------------------------------------------------------
                            Z-MATRIX (ANGSTROMS AND DEGREES)
   CD    Cent   Atom    N1       Length/X        N2       Alpha/Y        N3        Beta/Z          J
 ---------------------------------------------------------------------------------------------------
      1      1  O 
      2      2  C        1   1.169064(     1)
      3         X        2   0.294219(     2)      1   90.000(     4)
      4      3  O        2   1.169064(     3)      3   90.000(     5)      1  180.000(     6)      0
 ---------------------------------------------------------------------------------------------------
                         Z-Matrix orientation:                         
 ---------------------------------------------------------------------
 Center     Atomic      Atomic             Coordinates (Angstroms)
 Number     Number       Type             X           Y           Z
 ---------------------------------------------------------------------
      1          8           0        0.000000    0.000000    0.000000
      2          6           0        0.000000    0.000000    1.169064
      3         -1           0        0.294219    0.000000    1.169064
      4          8           0        0.000000   -0.000004    2.338128
 ---------------------------------------------------------------------
                    Distance matrix (angstroms):
                    1          2          3          4
     1  O    0.000000
     2  C    1.169064   0.000000
     3  X    1.205518   0.294219   0.000000
     4  O    2.338128   1.169064   1.205519   0.000000
 Stoichiometry    CO2
 Framework group  C*V[C*(OCO)]
 Deg. of freedom     2
 Full point group                 C*V     NOp   4
 RotChk:  IX=0 Diff= 0.00D+00
 Largest Abelian subgroup         C2V     NOp   4
 Largest concise Abelian subgroup C1      NOp   1
                         Standard orientation:                         
 ---------------------------------------------------------------------
 Center     Atomic      Atomic             Coordinates (Angstroms)
 Number     Number       Type             X           Y           Z
 ---------------------------------------------------------------------
      1          8           0       -0.000000    0.000000   -1.169064
      2          6           0       -0.000000    0.000000   -0.000000
      3          8           0        0.000000    0.000000    1.169064
 ---------------------------------------------------------------------
 Rotational constants (GHZ):      0.0000000     11.5592286     11.5592286
 Leave Link  202 at Thu Aug  5 17:06:36 2021, MaxMem=  2684354560 cpu:         0.1
 (Enter /soft/gaussian/09-e.01/g09/l301.exe)
 Standard basis: 6-31G(d) (6D, 7F)
 Ernie: Thresh=  0.10000D-02 Tol=  0.10000D-05 Strict=F.
 There are    24 symmetry adapted cartesian basis functions of A1  symmetry.
 There are     3 symmetry adapted cartesian basis functions of A2  symmetry.
 There are     9 symmetry adapted cartesian basis functions of B1  symmetry.
 There are     9 symmetry adapted cartesian basis functions of B2  symmetry.
 There are    24 symmetry adapted basis functions of A1  symmetry.
 There are     3 symmetry adapted basis functions of A2  symmetry.
 There are     9 symmetry adapted basis functions of B1  symmetry.
 There are     9 symmetry adapted basis functions of B2  symmetry.
    45 basis functions,    84 primitive gaussians,    45 cartesian basis functions
    11 alpha electrons       11 beta electrons
       nuclear repulsion energy        57.9392527160 Hartrees.
 IExCor= 4639 DFT=T Ex+Corr=wB97XD ExCW=0 ScaHFX=  1.000000
 ScaDFX=  1.000000  1.000000  1.000000  1.000000 ScalE2=  1.000000  1.000000
 IRadAn=      5 IRanWt=     -1 IRanGd=            0 ICorTp=0 IEmpDi=121
  HFx wShort=  0.000000 wLong=  0.200000 cFull=  0.222036 cShort=  0.000000 cLong=  0.777964
  DFx wShort=  0.000000 wLong=  0.200000 cFull=  0.000000 cShort=  0.000000 cLong=  1.000000
 NAtoms=    3 NActive=    3 NUniq=    3 SFac= 1.00D+00 NAtFMM=   60 NAOKFM=F Big=F
 Integral buffers will be    131072 words long.
 Raffenetti 2 integral format.
 Two-electron integral symmetry is turned on.
 R6Disp:  Grimme-D2 Dispersion energy=       -0.0000519287 Hartrees.
 Nuclear repulsion after empirical dispersion term =       57.9392007873 Hartrees.
 Leave Link  301 at Thu Aug  5 17:06:36 2021, MaxMem=  2684354560 cpu:         0.4
[...]
                 (DLTG) (PIU) (PIU) (SGG) (SGU) (PIG) (PIG) (SGG)
                 (SGG) (SGG) (SGU)
 The electronic state is 1-SGG.
 Alpha  occ. eigenvalues --  -19.35904 -19.35903 -10.49842  -1.26650  -1.22244
 Alpha  occ. eigenvalues --   -0.65451  -0.60675  -0.60675  -0.60655  -0.45451
 Alpha  occ. eigenvalues --   -0.45451
 Alpha virt. eigenvalues --    0.11379   0.11379   0.17129   0.45760   0.56972
 Alpha virt. eigenvalues --    0.56972   0.67717   0.82959   0.87023   0.96639
 Alpha virt. eigenvalues --    0.96639   1.13649   1.13649   1.14230   1.47063
 Alpha virt. eigenvalues --    1.47172   1.47172   1.49342   1.49342   1.81285
 Alpha virt. eigenvalues --    1.81285   1.92765   2.11788   2.11788   2.21768
 Alpha virt. eigenvalues --    2.21768   2.82731   3.01817   3.05076   3.05076
 Alpha virt. eigenvalues --    3.16007   3.85088   4.50487   4.55497
          Condensed to atoms (all electrons):
               1          2          3
     1  O    7.810319   0.591352  -0.022004
     2  C    0.591352   4.057960   0.591352
     3  O   -0.022004   0.591352   7.810319
 Mulliken charges:
               1
     1  O   -0.379668
     2  C    0.759335
     3  O   -0.379668
 Sum of Mulliken charges =   0.00000
 Mulliken charges with hydrogens summed into heavy atoms:
               1
     1  O   -0.379668
     2  C    0.759335
     3  O   -0.379668
 APT charges:
               1
     1  O   -0.576463
     2  C    1.152926
     3  O   -0.576463
 Sum of APT charges =   0.00000
 APT charges with hydrogens summed into heavy atoms:
               1
     1  O   -0.576463
     2  C    1.152926
     3  O   -0.576463
 Electronic spatial extent (au):  <R**2>=            113.0750
 Charge=              0.0000 electrons
 Dipole moment (field-independent basis, Debye):
    X=             -0.0000    Y=              0.0000    Z=              0.0000  Tot=              0.0000
 Quadrupole moment (field-independent basis, Debye-Ang):
   XX=            -14.4167   YY=            -14.4167   ZZ=            -19.0093
   XY=              0.0000   XZ=             -0.0000   YZ=              0.0000
 Traceless Quadrupole moment (field-independent basis, Debye-Ang):
   XX=              1.5309   YY=              1.5309   ZZ=             -3.0618
   XY=              0.0000   XZ=             -0.0000   YZ=              0.0000
 Octapole moment (field-independent basis, Debye-Ang**2):
  XXX=             -0.0000  YYY=              0.0000  ZZZ=              0.0000  XYY=             -0.0000
  XXY=              0.0000  XXZ=             -0.0000  XZZ=             -0.0000  YZZ=              0.0000
  YYZ=             -0.0000  XYZ=              0.0000
 Hexadecapole moment (field-independent basis, Debye-Ang**3):
 XXXX=            -10.2595 YYYY=            -10.2595 ZZZZ=           -100.1073 XXXY=              0.0000
 XXXZ=             -0.0000 YYYX=              0.0000 YYYZ=              0.0000 ZZZX=             -0.0000
 ZZZY=              0.0000 XXYY=             -3.4198 XXZZ=            -18.0019 YYZZ=            -18.0019
 XXYZ=              0.0000 YYXZ=             -0.0000 ZZXY=              0.0000
 N-N= 5.815730779259D+01 E-N=-5.593060734521D+02  KE= 1.869342085742D+02
 Symmetry AG   KE= 1.009109765284D+02
 Symmetry B1G  KE= 1.487265734231D-29
 Symmetry B2G  KE= 4.873490885179D+00
 Symmetry B3G  KE= 4.873490885172D+00
 Symmetry AU   KE= 1.034105279167D-30
 Symmetry B1U  KE= 6.902353521716D+01
 Symmetry B2U  KE= 3.626357529143D+00
 Symmetry B3U  KE= 3.626357529147D+00
  Exact polarizability:   7.648  -0.000   7.648   0.000   0.000  21.980
 Approx polarizability:   8.242  -0.000   8.242   0.000   0.000  33.198
 No NMR shielding tensors so no spin-rotation constants.
 Leave Link  601 at Thu Aug  5 17:06:44 2021, MaxMem=  2684354560 cpu:         1.5
 (Enter /soft/gaussian/09-e.01/g09/l701.exe)
 Compute integral second derivatives.
 ... and contract with generalized density number  0.
 R6Disp: Adding Grimme-D2 dispersion energy 2nd derivatives to the Hessian.
 Leave Link  701 at Thu Aug  5 17:06:44 2021, MaxMem=  2684354560 cpu:         1.6
 (Enter /soft/gaussian/09-e.01/g09/l702.exe)
 L702 exits ... SP integral derivatives will be done elsewhere.
 Leave Link  702 at Thu Aug  5 17:06:44 2021, MaxMem=  2684354560 cpu:         0.2
 (Enter /soft/gaussian/09-e.01/g09/l703.exe)
 Compute integral second derivatives, UseDBF=F ICtDFT=           0.
 Integral derivatives from FoFJK, PRISM(SPDF).
 Calling FoFJK, ICntrl=    100127 FMM=F ISym2X=1 I1Cent= 0 IOpClX= 0 NMat=1 NMatS=1 NMatT=0.
 FoFJK:  IHMeth= 1 ICntrl=  100127 DoSepK=T KAlg= 0 I1Cent=   0 FoldK=F
 IRaf=         1 NMat=   1 IRICut=       1 DoRegI=T DoRafI=F ISym2E= 1.
 FoFCou: FMM=F IPFlag=           0 FMFlag=      100000 FMFlg1=         800
         NFxFlg=           0 DoJE=F BraDBF=F KetDBF=F FulRan=T
         wScrn=  0.000000 ICntrl=  100527 IOpCl=  0 I1Cent=           0 NGrid=           0
         NMat0=    1 NMatS0=      1 NMatT0=    0 NMatD0=    1 NMtDS0=    0 NMtDT0=    0
 Petite list used in FoFCou.
 Leave Link  703 at Thu Aug  5 17:06:45 2021, MaxMem=  2684354560 cpu:         5.9
 (Enter /soft/gaussian/09-e.01/g09/l716.exe)
 Dipole        =-1.20565459D-16 8.05809089D-31 2.96637714D-16
 Polarizability= 7.64823468D+00-2.26915587D-15 7.64823468D+00
                 7.67829365D-15 1.75111049D-16 2.19797057D+01
 Full mass-weighted force constant matrix:
 Low frequencies ---    0.0010    0.0013    0.0018    8.1137    8.1137  655.4934
 Low frequencies ---  655.4934 1400.9314 2478.1333
 Diagonal vibrational polarizability:
        2.2317020       2.2317020       2.6560059
 Harmonic frequencies (cm**-1), IR intensities (KM/Mole), Raman scattering
 activities (A**4/AMU), depolarization ratios for plane and unpolarized
 incident light, reduced masses (AMU), force constants (mDyne/A),
 and normal coordinates:
                      1                      2                      3
                     PIU                    PIU                    SGG
 Frequencies --    655.4934               655.4934              1400.9314
 Red. masses --     12.8774                12.8774                15.9949
 Frc consts  --      3.2600                 3.2600                18.4955
 IR Inten    --     35.6320                35.6320                 0.0000
  Atom  AN      X      Y      Z        X      Y      Z        X      Y      Z
     1   8    -0.33   0.00   0.00    -0.00  -0.33  -0.00    -0.00  -0.00   0.71
     2   6     0.88  -0.00  -0.00     0.00   0.88  -0.00     0.00   0.00  -0.00
     3   8    -0.33   0.00   0.00    -0.00  -0.33   0.00    -0.00  -0.00  -0.71
                      4
                     SGU
 Frequencies --   2478.1333
 Red. masses --     12.8774
 Frc consts  --     46.5936
 IR Inten    --    606.1014
  Atom  AN      X      Y      Z
     1   8    -0.00  -0.00  -0.33
     2   6     0.00   0.00   0.88
     3   8    -0.00  -0.00  -0.33

 -------------------
 - Thermochemistry -
 -------------------
 Temperature   298.150 Kelvin.  Pressure   1.00000 Atm.
 Atom     1 has atomic number  8 and mass  15.99491
 Atom     2 has atomic number  6 and mass  12.00000
 Atom     3 has atomic number  8 and mass  15.99491
 Molecular mass:    43.98983 amu.
 Principal axes and moments of inertia in atomic units:
                           1         2         3
     Eigenvalues --     0.00000 154.96104 154.96104
           X            0.00000   1.00000   0.00000
           Y            0.00000  -0.00000   1.00000
           Z            1.00000  -0.00000   0.00000
 This molecule is a prolate symmetric top.
 Rotational symmetry number  2.
 Rotational temperature (Kelvin)      0.55894
 Rotational constant (GHZ):          11.646419
 Zero-point vibrational energy      31043.4 (Joules/Mol)
                                    7.41955 (Kcal/Mol)
 Vibrational temperatures:    943.11   943.11  2015.63  3565.48
          (Kelvin)
 
 Zero-point correction=                           0.011824 (Hartree/Particle)
 Thermal correction to Energy=                    0.014456
 Thermal correction to Enthalpy=                  0.015400
 Thermal correction to Gibbs Free Energy=        -0.008881
 Sum of electronic and zero-point Energies=           -188.508176
 Sum of electronic and thermal Energies=              -188.505544
 Sum of electronic and thermal Enthalpies=            -188.504600
 Sum of electronic and thermal Free Energies=         -188.528881
 
                     E (Thermal)             CV                S
                      KCal/Mol        Cal/Mol-Kelvin    Cal/Mol-Kelvin
 Total                    9.071              6.909             51.103
 Electronic               0.000              0.000              0.000
 Translational            0.889              2.981             37.270
 Rotational               0.592              1.987             13.088
 Vibrational              7.590              1.941              0.745
                       Q            Log10(Q)             Ln(Q)
 Total Bot       0.121619D+05          4.085000          9.406060
 Total V=0       0.333858D+10          9.523562         21.928813
 Vib (Bot)       0.397627D-05         -5.400524        -12.435166
 Vib (V=0)       0.109154D+01          0.038038          0.087587
 Electronic      0.100000D+01          0.000000          0.000000
 Translational   0.114679D+08          7.059484         16.255062
 Rotational      0.266711D+03          2.426040          5.586164
 
                                                               comment:
                                                             IR Spectrum
 
     2                                                       1                                                                       
     4                                                       4                                     6                                 
     7                                                       0                                     5                                 
     8                                                       1                                     5                                 
 
     X                                                                                             X                                 
     X                                                                                             X                                 
     X                                                                                                                               
     X                                                                                                                               
     X                                                                                                                               
     X                                                                                                                               
     X                                                                                                                               
     X                                                                                                                               
     X                                                                                                                               
     X                                                                                                                               
     X                                                                                                                               
     X                                                                                                                               
     X                                                                                                                               
     X                                                                                                                               
     X                                                                                                                               
     X                                                                                                                               
     X                                                                                                                               
     X                                                                                                                               
     X                                                                                                                               
     X                                                                                                                               
 
 ***** Axes restored to original set *****
 -------------------------------------------------------------------
 Center     Atomic                   Forces (Hartrees/Bohr)
 Number     Number              X              Y              Z
 -------------------------------------------------------------------
      1        8           0.000000000   -0.000000000   -0.000001724
      2        6           0.000000000   -0.000000000    0.000000000
      3        8          -0.000000000    0.000000000    0.000001724
 -------------------------------------------------------------------
 Cartesian Forces:  Max     0.000001724 RMS     0.000000813
 -----------------------------------------------------------------------------------------------
                       Internal Coordinate Forces (Hartree/Bohr or radian)
  Cent   Atom   N1       Length/X         N2         Alpha/Y        N3         Beta/Z          J
 -----------------------------------------------------------------------------------------------
      1  O 
      2  C        1   0.000002(     1)
         X        2   0.000000(     2)      1   0.000000(     4)
      3  O        2   0.000002(     3)      3   0.000000(     5)      1   0.000000(     6)     0
 -----------------------------------------------------------------------------------------------
 Internal  Forces:  Max     0.000001724 RMS     0.000000995
 Force constants in Cartesian coordinates: 
                1             2             3             4             5 
      1  0.354938D-01
      2  0.000000D+00  0.354938D-01
      3  0.000000D+00  0.000000D+00  0.110100D+01
      4 -0.709478D-01  0.000000D+00  0.000000D+00  0.141896D+00
      5  0.000000D+00 -0.709478D-01  0.000000D+00  0.000000D+00  0.141896D+00
      6  0.000000D+00  0.000000D+00 -0.101403D+01  0.000000D+00  0.000000D+00
      7  0.354540D-01  0.000000D+00  0.000000D+00 -0.709478D-01  0.000000D+00
      8  0.000000D+00  0.354540D-01  0.000000D+00  0.000000D+00 -0.709478D-01
      9  0.000000D+00  0.000000D+00 -0.869712D-01  0.000000D+00  0.000000D+00
                6             7             8             9 
      6  0.202806D+01
      7  0.000000D+00  0.354938D-01
      8  0.000000D+00  0.000000D+00  0.354938D-01
      9 -0.101403D+01  0.000000D+00  0.000000D+00  0.110100D+01
 Force constants in internal coordinates: 
                1             2             3             4             5 
      1  0.110100D+01
      2  0.000000D+00  0.000000D+00
      3  0.869712D-01  0.000000D+00  0.110100D+01
      4  0.000000D+00  0.000000D+00  0.000000D+00  0.171938D+00
      5  0.000000D+00  0.000000D+00  0.000000D+00  0.171938D+00  0.171938D+00
      6  0.000000D+00  0.000000D+00  0.826782D-05  0.000000D+00  0.000000D+00
                6 
      6  0.171938D+00
 Leave Link  716 at Thu Aug  5 17:06:45 2021, MaxMem=  2684354560 cpu:         0.2
 (Enter /soft/gaussian/09-e.01/g09/l103.exe)

 GradGradGradGradGradGradGradGradGradGradGradGradGradGradGradGradGradGrad
 Berny optimization.
 Search for a local minimum.
 Step number   1 out of a maximum of    2
 All quantities printed in internal units (Hartrees-Bohrs-Radians)
 Second derivative matrix not updated -- analytic derivatives used.
 The second derivative matrix:
                          R1        R2        R3        A2        A3
           R1           1.10100
           R2           0.00000   0.00000
           R3           0.08697  -0.00000   1.10100
           A2          -0.00000   0.00000  -0.00000   0.17194
           A3          -0.00000   0.00000  -0.00000   0.17194   0.17194
           D3           0.00000  -0.00000   0.00001  -0.00000  -0.00000
                          D3
           D3           0.17194
 ITU=  0
     Eigenvalues ---    0.00000   1.01403   1.187971000.000001000.00000
     Eigenvalues --- 1000.00000
 Angle between quadratic step and forces=   0.00 degrees.
 Linear search not attempted -- first point.
 Variable       Old X    -DE/DX   Delta X   Delta X   Delta X     New X
                                 (Linear)    (Quad)   (Total)
    R1        2.20093   0.00000   0.00000   0.00000   0.00000   2.20093
    R2        1.36682   0.00000   0.00000   0.00000   0.00000   1.36682
    R3        2.20093   0.00000   0.00000   0.00000   0.00000   2.20093
    A2        1.57080   0.00000   0.00000   0.00000   0.00000   1.57080
    A3        1.57080   0.00000   0.00000   0.00000   0.00000   1.57080
    D3        3.14159   0.00000   0.00000   0.00000   0.00000   3.14159
         Item               Value     Threshold  Converged?
 Maximum Force            0.000002     0.000450     YES
 RMS     Force            0.000001     0.000300     YES
 Maximum Displacement     0.000001     0.001800     YES
 RMS     Displacement     0.000001     0.001200     YES
 Predicted change in Energy=-2.502555D-12
 Optimization completed.
    -- Stationary point found.
                       ----------------------------
                       !   Optimized Parameters   !
                       ! (Angstroms and Degrees)  !
 ----------------------                            ----------------------
 !      Name          Value   Derivative information (Atomic Units)     !
 ------------------------------------------------------------------------
 !       R1          1.1647   -DE/DX =    0.0                           !
 !       R2          0.7233   -DE/DX =    0.0                           !
 !       R3          1.1647   -DE/DX =    0.0                           !
 !       A2         90.0      -DE/DX =    0.0                           !
 !       A3         90.0      -DE/DX =    0.0                           !
 !       D3        179.9998   -DE/DX =    0.0                           !
 ------------------------------------------------------------------------
 GradGradGradGradGradGradGradGradGradGradGradGradGradGradGradGradGradGrad

 Leave Link  103 at Thu Aug  5 17:06:45 2021, MaxMem=  2684354560 cpu:         0.1
 (Enter /soft/gaussian/09-e.01/g09/l9999.exe)
 1\1\GINC-B459\Freq\RwB97XD\6-31G(d)\C1O2\KMOORE\05-Aug-2021\1\\#P Geom
 =AllCheck Guess=TCheck SCRF=Check GenChk RwB97XD/6-31G(d) Freq\\commen
 t:\\0,1\O\C,1,R1\X,2,R2,1,A2\O,2,R3,3,A3,1,D3,0\\R1=1.1646795\R2=0.723
 29006\R3=1.16467948\A2=90.\A3=90.\D3=179.999798\\Version=ES64L-G09RevE
 .01\State=1-SGG\HF=-188.52\RMSD=1.110e-09\RMSF=8.128e-07\ZeroPoint=0.0
 118238\Thermal=0.0144555\Dipole=0.,0.,0.\DipoleDeriv=-0.2823805,0.,0.,
 0.,-0.2823805,0.,0.,0.,-1.1646286,0.564761,0.,0.,0.,0.564761,0.,0.,0.,
 2.3292572,-0.2823805,0.,0.,0.,-0.2823805,0.,0.,0.,-1.1646286\Polar=7.6
 482347,0.,7.6482347,0.,0.,21.9797057\PG=D*H [O(C1),C*(O1.O1)]\NImag=0\
 \0.03549383,0.,0.03549383,0.,0.,1.10100329,-0.07094782,0.,0.,0.1418956
 3,0.,-0.07094782,0.,0.,0.14189563,0.,0.,-1.01403205,0.,0.,2.02806409,0
 .03545398,0.,0.,-0.07094782,0.,0.,0.03549383,0.,0.03545398,0.,0.,-0.07
 094782,0.,0.,0.03549383,0.,0.,-0.08697124,0.,0.,-1.01403205,0.,0.,1.10
 100329\\0.,0.,0.00000172,0.,0.,0.,0.,0.,-0.00000172\\\@


 BREAD HAS TO MOLD IN ORDER TO GET PENICILLIN.
          -- JERRY BOATZ
 Job cpu time:       0 days  0 hours  0 minutes 25.7 seconds.
 File lengths (MBytes):  RWF=      5 Int=      0 D2E=      0 Chk=      1 Scr=      1
 Normal termination of Gaussian 09 at Thu Aug  5 17:06:45 2021.
