 Entering Gaussian System, Link 0=g09
 Initial command:
 /soft/gaussian/09-e.01/g09/l1.exe "/scratch/kmoore/Gau-13209.inp" -scrdir="/scratch/kmoore"
 Entering Link 1 = /soft/gaussian/09-e.01/g09/l1.exe PID=     13210.
  
 Copyright (c) 1988,1990,1992,1993,1995,1998,2003,2009,2015,
            Gaussian, Inc.  All Rights Reserved.
  
 This is part of the Gaussian(R) 09 program.  It is based on
 the Gaussian(R) 03 system (copyright 2003, Gaussian, Inc.),
 the Gaussian(R) 98 system (copyright 1998, Gaussian, Inc.),
 the Gaussian(R) 94 system (copyright 1995, Gaussian, Inc.),
 the Gaussian 92(TM) system (copyright 1992, Gaussian, Inc.),
 the Gaussian 90(TM) system (copyright 1990, Gaussian, Inc.),
 the Gaussian 88(TM) system (copyright 1988, Gaussian, Inc.),
 the Gaussian 86(TM) system (copyright 1986, Carnegie Mellon
 University), and the Gaussian 82(TM) system (copyright 1983,
 Carnegie Mellon University). Gaussian is a federally registered
 trademark of Gaussian, Inc.
  
 This software contains proprietary and confidential information,
 including trade secrets, belonging to Gaussian, Inc.
  
 This software is provided under written license and may be
 used, copied, transmitted, or stored only in accord with that
 written license.
  
 The following legend is applicable only to US Government
 contracts under FAR:
  
                    RESTRICTED RIGHTS LEGEND
  
 Use, reproduction and disclosure by the US Government is
 subject to restrictions as set forth in subparagraphs (a)
 and (c) of the Commercial Computer Software - Restricted
 Rights clause in FAR 52.227-19.
  
 Gaussian, Inc.
 340 Quinnipiac St., Bldg. 40, Wallingford CT 06492
  
  
 ---------------------------------------------------------------
 Warning -- This program may not be used in any manner that
 competes with the business of Gaussian, Inc. or will provide
 assistance to any competitor of Gaussian, Inc.  The licensee
 of this program is prohibited from giving any competitor of
 Gaussian, Inc. access to this program.  By using this program,
 the user acknowledges that Gaussian, Inc. is engaged in the
 business of creating and licensing software in the field of
 computational chemistry and represents and warrants to the
 licensee that it is not a competitor of Gaussian, Inc. and that
 it will not use this program in any manner prohibited above.
 ---------------------------------------------------------------
  

 Cite this work as:
 Gaussian 09, Revision E.01,
 M. J. Frisch, G. W. Trucks, H. B. Schlegel, G. E. Scuseria, 
 M. A. Robb, J. R. Cheeseman, G. Scalmani, V. Barone, B. Mennucci, 
 G. A. Petersson, H. Nakatsuji, M. Caricato, X. Li, H. P. Hratchian, 
 A. F. Izmaylov, J. Bloino, G. Zheng, J. L. Sonnenberg, M. Hada, 
 M. Ehara, K. Toyota, R. Fukuda, J. Hasegawa, M. Ishida, T. Nakajima, 
 Y. Honda, O. Kitao, H. Nakai, T. Vreven, J. A. Montgomery, Jr., 
 J. E. Peralta, F. Ogliaro, M. Bearpark, J. J. Heyd, E. Brothers, 
 K. N. Kudin, V. N. Staroverov, T. Keith, R. Kobayashi, J. Normand, 
 K. Raghavachari, A. Rendell, J. C. Burant, S. S. Iyengar, J. Tomasi, 
 M. Cossi, N. Rega, J. M. Millam, M. Klene, J. E. Knox, J. B. Cross, 
 V. Bakken, C. Adamo, J. Jaramillo, R. Gomperts, R. E. Stratmann, 
 O. Yazyev, A. J. Austin, R. Cammi, C. Pomelli, J. W. Ochterski, 
 R. L. Martin, K. Morokuma, V. G. Zakrzewski, G. A. Voth, 
 P. Salvador, J. J. Dannenberg, S. Dapprich, A. D. Daniels, 
 O. Farkas, J. B. Foresman, J. V. Ortiz, J. Cioslowski, 
 and D. J. Fox, Gaussian, Inc., Wallingford CT, 2013.
 
 ******************************************
 Gaussian 09:  ES64L-G09RevE.01 30-Nov-2015
                 5-Aug-2021 
 ******************************************
 %mem=20GB
 %NProcShared=10
 Will use up to   10 processors via shared memory.
 ----------------------------------------------------------------------
 #P wb97xd/6-31g* # SCF=(xqc) # POpt=(CALCFC,TS,NOEIGEN,MAXCYCLES=60) #
  int=ultrafine # Freq
 ----------------------------------------------------------------------
 1/5=1,6=60,10=4,11=1,14=-1,26=4,38=1/1,3;
 2/12=2,17=6,18=5,29=3,40=1/2;
 3/5=1,6=6,7=1,11=2,16=1,25=1,30=1,71=2,74=-58,75=-5,140=1/1,2,3;
 4//1;
 5/5=2,8=3,13=1,38=5/2,8;
 8/6=4,10=90,11=11/1;
 11/6=1,8=1,9=11,15=111,16=1/1,2,10;
 10/6=1,13=1/2;
 6/7=2,8=2,9=2,10=2,28=1/1;
 7/10=1,18=20,25=1/1,2,3,16;
 1/5=1,6=60,10=4,11=1,14=-1,26=4/3(2);
 2/29=3/2;
 99//99;
 2/29=3/2;
 3/5=1,6=6,7=1,11=2,16=1,25=1,30=1,71=1,74=-58,75=-5/1,2,3;
 4/5=5,16=3,69=1/1;
 5/5=2,8=3,13=1,38=5/2,8;
 7//1,2,3,16;
 1/5=1,6=60,11=1,14=-1,26=4/3(-5);
 2/29=3/2;
 6/7=2,8=2,9=2,10=2,19=2,28=1/1;
 99/9=1/99;
 Leave Link    1 at Thu Aug  5 16:40:59 2021, MaxMem=  2684354560 cpu:         0.5
 (Enter /soft/gaussian/09-e.01/g09/l101.exe)
 --------
 comment:
 --------
 Symbolic Z-matrix:
 Charge =  0 Multiplicity = 2
 C
 H                    1    R1
 H                    1    R2       2    A2
 H                    1    R3       2    A3       3    D3       0
 H                    1    R4       2    A4       3    D4       0
 X                    5    R5       1    A5       2    D5       0
 H                    5    R6       6    A6       1    D6       0
       Variables:
  R1                    1.0903                   
  R2                    1.0903                   
  R3                    1.0903                   
  R4                    1.2548                   
  R6                    0.9686                   
  A2                  112.7193                   
  A3                  112.687                    
  A4                  106.0686                   
  A6                   90.1262                   
  D3                  231.1092                   
  D4                  115.6459                   
  D6                  180.0084                   
       Constants:
  R5                    1.                       
  A5                   90.                       
  D5                    0.                       
 
 NAtoms=      6 NQM=        6 NQMF=       0 NMMI=      0 NMMIF=      0
                NMic=       0 NMicF=      0.
                    Isotopes and Nuclear Properties:
 (Nuclear quadrupole moments (NQMom) in fm**2, nuclear magnetic moments (NMagM)
  in nuclear magnetons)

  Atom         1           2           3           4           5           6
 IAtWgt=          12           1           1           1           1           1
 AtmWgt=  12.0000000   1.0078250   1.0078250   1.0078250   1.0078250   1.0078250
 NucSpn=           0           1           1           1           1           1
 AtZEff=   0.0000000   0.0000000   0.0000000   0.0000000   0.0000000   0.0000000
 NQMom=    0.0000000   0.0000000   0.0000000   0.0000000   0.0000000   0.0000000
 NMagM=    0.0000000   2.7928460   2.7928460   2.7928460   2.7928460   2.7928460
 AtZNuc=   6.0000000   1.0000000   1.0000000   1.0000000   1.0000000   1.0000000
 Leave Link  101 at Thu Aug  5 16:40:59 2021, MaxMem=  2684354560 cpu:         0.7
 (Enter /soft/gaussian/09-e.01/g09/l103.exe)

 GradGradGradGradGradGradGradGradGradGradGradGradGradGradGradGradGradGrad
 Berny optimization.
 Initialization pass.
                       ----------------------------
                       !    Initial Parameters    !
                       ! (Angstroms and Degrees)  !
 ----------------------                            ----------------------
 !      Name          Value   Derivative information (Atomic Units)     !
 ------------------------------------------------------------------------
 !       R1          1.0903   calculate D2E/DX2 analytically            !
 !       R2          1.0903   calculate D2E/DX2 analytically            !
 !       R3          1.0903   calculate D2E/DX2 analytically            !
 !       R4          1.2548   calculate D2E/DX2 analytically            !
 !       R6          0.9686   calculate D2E/DX2 analytically            !
 !       A2        112.7193   calculate D2E/DX2 analytically            !
 !       A3        112.687    calculate D2E/DX2 analytically            !
 !       A4        106.0686   calculate D2E/DX2 analytically            !
 !       A6         90.1262   calculate D2E/DX2 analytically            !
 !       D3        231.1092   calculate D2E/DX2 analytically            !
 !       D4        115.6459   calculate D2E/DX2 analytically            !
 !       D6        180.0084   calculate D2E/DX2 analytically            !
 !       R5          1.0      frozen, calculate D2E/DX2 analytically    !
 !       A5         90.0      frozen, calculate D2E/DX2 analytically    !
 !       D5          0.0      frozen, calculate D2E/DX2 analytically    !
 ------------------------------------------------------------------------
 Trust Radius=3.00D-01 FncErr=1.00D-07 GrdErr=1.00D-06
 Number of steps in this run=     60 maximum allowed number of steps=    100.
 Search for a saddle point of order  1.
 GradGradGradGradGradGradGradGradGradGradGradGradGradGradGradGradGradGrad

 Leave Link  103 at Thu Aug  5 16:40:59 2021, MaxMem=  2684354560 cpu:         0.2
 (Enter /soft/gaussian/09-e.01/g09/l202.exe)
 ---------------------------------------------------------------------------------------------------
                            Z-MATRIX (ANGSTROMS AND DEGREES)
   CD    Cent   Atom    N1       Length/X        N2       Alpha/Y        N3        Beta/Z          J
 ---------------------------------------------------------------------------------------------------
      1      1  C 
      2      2  H        1   1.090300(     1)
      3      3  H        1   1.090300(     2)      2  112.719(     7)
      4      4  H        1   1.090300(     3)      2  112.687(     8)      3  231.109(    12)      0
      5      5  H        1   1.254800(     4)      2  106.069(     9)      3  115.646(    13)      0
      6         X        5   1.000000(     5)      1   90.000(    10)      2    0.000(    14)      0
      7      6  H        5   0.968600(     6)      6   90.126(    11)      1  180.008(    15)      0
 ---------------------------------------------------------------------------------------------------
                         Z-Matrix orientation:                         
 ---------------------------------------------------------------------
 Center     Atomic      Atomic             Coordinates (Angstroms)
 Number     Number       Type             X           Y           Z
 ---------------------------------------------------------------------
      1          6           0        0.000000    0.000000    0.000000
      2          1           0        0.000000    0.000000    1.090300
      3          1           0        1.005701    0.000000   -0.421092
      4          1           0       -0.631567    0.782966   -0.420525
      5          1           0       -0.521870   -1.086990   -0.347314
      6         -1           0       -0.641666   -1.336511    0.613617
      7          1           0       -0.924581   -1.925460   -0.617460
 ---------------------------------------------------------------------
                    Distance matrix (angstroms):
                    1          2          3          4          5
     1  C    0.000000
     2  H    1.090300   0.000000
     3  H    1.090300   1.815418   0.000000
     4  H    1.090300   1.815077   1.814851   0.000000
     5  H    1.254800   1.876334   1.876290   1.874602   0.000000
     6  X    1.604532   1.557313   2.360234   2.358334   1.000000
     7  H    2.223399   2.734719   2.733486   2.731339   0.968600
                    6          7
     6  X    0.000000
     7  H    1.393719   0.000000
 Stoichiometry    CH5(2)
 Framework group  C1[X(CH5)]
 Deg. of freedom    12
 Full point group                 C1      NOp   1
 Largest Abelian subgroup         C1      NOp   1
 Largest concise Abelian subgroup C1      NOp   1
                         Standard orientation:                         
 ---------------------------------------------------------------------
 Center     Atomic      Atomic             Coordinates (Angstroms)
 Number     Number       Type             X           Y           Z
 ---------------------------------------------------------------------
      1          6           0       -0.234137    0.000023   -0.000081
      2          1           0       -0.537069    0.993864   -0.330638
      3          1           0       -0.535621   -0.784748   -0.694340
      4          1           0       -0.532411   -0.210530    1.027272
      5          1           0        1.020662    0.001180   -0.000966
      6          1           0        1.989261    0.000093   -0.000842
 ---------------------------------------------------------------------
 Rotational constants (GHZ):    152.2034130     62.3388176     62.3295128
 Leave Link  202 at Thu Aug  5 16:40:59 2021, MaxMem=  2684354560 cpu:         0.1
 (Enter /soft/gaussian/09-e.01/g09/l301.exe)
 Standard basis: 6-31G(d) (6D, 7F)
 Ernie: Thresh=  0.10000D-02 Tol=  0.10000D-05 Strict=F.
 There are    25 symmetry adapted cartesian basis functions of A   symmetry.
 There are    25 symmetry adapted basis functions of A   symmetry.
    25 basis functions,    48 primitive gaussians,    25 cartesian basis functions
     6 alpha electrons        5 beta electrons
       nuclear repulsion energy        15.5427933227 Hartrees.
 IExCor= 4639 DFT=T Ex+Corr=wB97XD ExCW=0 ScaHFX=  1.000000
 ScaDFX=  1.000000  1.000000  1.000000  1.000000 ScalE2=  1.000000  1.000000
 IRadAn=      5 IRanWt=     -1 IRanGd=            0 ICorTp=0 IEmpDi=121
  HFx wShort=  0.000000 wLong=  0.200000 cFull=  0.222036 cShort=  0.000000 cLong=  0.777964
  DFx wShort=  0.000000 wLong=  0.200000 cFull=  0.000000 cShort=  0.000000 cLong=  1.000000
 NAtoms=    6 NActive=    6 NUniq=    6 SFac= 1.00D+00 NAtFMM=   60 NAOKFM=F Big=F
 Integral buffers will be    131072 words long.
 Raffenetti 2 integral format.
 Two-electron integral symmetry is turned on.
 R6Disp:  Grimme-D2 Dispersion energy=       -0.0008984898 Hartrees.
 Nuclear repulsion after empirical dispersion term =       15.5418948330 Hartrees.
 Leave Link  301 at Thu Aug  5 16:41:00 2021, MaxMem=  2684354560 cpu:         0.5
 (Enter /soft/gaussian/09-e.01/g09/l302.exe)
 NPDir=0 NMtPBC=     1 NCelOv=     1 NCel=       1 NClECP=     1 NCelD=      1
         NCelK=      1 NCelE2=     1 NClLst=     1 CellRange=     0.0.
 One-electron integrals computed using PRISM.
 NBasis=    25 RedAO= T EigKep=  1.28D-02  NBF=    25
 NBsUse=    25 1.00D-06 EigRej= -1.00D+00 NBFU=    25
 Precomputing XC quadrature grid using
 IXCGrd= 4 IRadAn=           5 IRanWt=          -1 IRanGd=           0 AccXCQ= 0.00D+00.
 Generated NRdTot=       0 NPtTot=           0 NUsed=           0 NTot=          32
 NSgBfM=    25    25    25    25    25 MxSgAt=     6 MxSgA2=     6.
 Leave Link  302 at Thu Aug  5 16:41:00 2021, MaxMem=  2684354560 cpu:         1.9
 (Enter /soft/gaussian/09-e.01/g09/l303.exe)
 DipDrv:  MaxL=1.
 Leave Link  303 at Thu Aug  5 16:41:00 2021, MaxMem=  2684354560 cpu:         0.2
 (Enter /soft/gaussian/09-e.01/g09/l401.exe)
 ExpMin= 1.61D-01 ExpMax= 3.05D+03 ExpMxC= 4.57D+02 IAcc=3 IRadAn=         5 AccDes= 0.00D+00
 Harris functional with IExCor= 4639 and IRadAn=       5 diagonalized for initial guess.
 HarFok:  IExCor= 4639 AccDes= 0.00D+00 IRadAn=         5 IDoV= 1 UseB2=F ITyADJ=14
 ICtDFT=  3500011 ScaDFX=  1.000000  1.000000  1.000000  1.000000
 FoFCou: FMM=F IPFlag=           0 FMFlag=      100000 FMFlg1=           0
         NFxFlg=           0 DoJE=T BraDBF=F KetDBF=T FulRan=T
         wScrn=  0.000000 ICntrl=     500 IOpCl=  0 I1Cent=   200000004 NGrid=           0
         NMat0=    1 NMatS0=      1 NMatT0=    0 NMatD0=    1 NMtDS0=    0 NMtDT0=    0
 Petite list used in FoFCou.
 Harris En= -38.5717758323675    
 JPrj=0 DoOrth=F DoCkMO=F.
 Initial guess <Sx>= 0.0000 <Sy>= 0.0000 <Sz>= 0.5000 <S**2>= 0.7500 S= 0.5000
 Leave Link  401 at Thu Aug  5 16:41:00 2021, MaxMem=  2684354560 cpu:         2.8
 (Enter /soft/gaussian/09-e.01/g09/l502.exe)
 UHF open shell SCF:
 Using DIIS extrapolation, IDIIS=  1040.
 Integral symmetry usage will be decided dynamically.
 Keep R1 and R2 ints in memory in canonical form, NReq=1082368.
 IVT=        8268 IEndB=        8268 NGot=  2684354560 MDV=  2684134393
 LenX=  2684134393 LenY=  2684133327
 Requested convergence on RMS density matrix=1.00D-08 within  64 cycles.
 Requested convergence on MAX density matrix=1.00D-06.
 Requested convergence on             energy=1.00D-06.
 No special actions if energy rises.
 FoFCou: FMM=F IPFlag=           0 FMFlag=           0 FMFlg1=           0
         NFxFlg=           0 DoJE=F BraDBF=F KetDBF=F FulRan=T
         wScrn=  0.000000 ICntrl=     600 IOpCl=  0 I1Cent=           0 NGrid=           0
         NMat0=    1 NMatS0=    325 NMatT0=    0 NMatD0=    1 NMtDS0=    0 NMtDT0=    0
 Symmetry not used in FoFCou.
 Integral accuracy reduced to 1.0D-05 until final iterations.

 Cycle   1  Pass 0  IDiag  1:
 E= -40.9613320200154    
 DIIS: error= 7.18D-02 at cycle   1 NSaved=   1.
 NSaved= 1 IEnMin= 1 EnMin= -40.9613320200154     IErMin= 1 ErrMin= 7.18D-02
 ErrMax= 7.18D-02  0.00D+00 EMaxC= 1.00D-01 BMatC= 1.63D-01 BMatP= 1.63D-01
 IDIUse=3 WtCom= 2.82D-01 WtEn= 7.18D-01
 Coeff-Com:  0.100D+01
 Coeff-En:   0.100D+01
 Coeff:      0.100D+01
 Gap=     0.507 Goal=   None    Shift=    0.000
 Gap=     0.449 Goal=   None    Shift=    0.000
 GapD=    0.449 DampG=2.000 DampE=0.500 DampFc=1.0000 IDamp=-1.
 RMSDP=8.14D-03 MaxDP=7.59D-02              OVMax= 8.12D-02

 Cycle   2  Pass 0  IDiag  1:
 E= -40.9744235782144     Delta-E=       -0.013091558199 Rises=F Damp=F
 DIIS: error= 1.79D-02 at cycle   2 NSaved=   2.
 NSaved= 2 IEnMin= 2 EnMin= -40.9744235782144     IErMin= 2 ErrMin= 1.79D-02
 ErrMax= 1.79D-02  0.00D+00 EMaxC= 1.00D-01 BMatC= 2.29D-02 BMatP= 1.63D-01
 IDIUse=3 WtCom= 8.21D-01 WtEn= 1.79D-01
 Coeff-Com:  0.176D+00 0.824D+00
 Coeff-En:   0.000D+00 0.100D+01
 Coeff:      0.145D+00 0.855D+00
 Gap=     0.502 Goal=   None    Shift=    0.000
 Gap=     0.493 Goal=   None    Shift=    0.000
 RMSDP=4.07D-03 MaxDP=4.30D-02 DE=-1.31D-02 OVMax= 4.56D-02

 Cycle   3  Pass 0  IDiag  1:
 E= -40.9788325925226     Delta-E=       -0.004409014308 Rises=F Damp=F
 DIIS: error= 1.01D-02 at cycle   3 NSaved=   3.
 NSaved= 3 IEnMin= 3 EnMin= -40.9788325925226     IErMin= 3 ErrMin= 1.01D-02
 ErrMax= 1.01D-02  0.00D+00 EMaxC= 1.00D-01 BMatC= 6.90D-03 BMatP= 2.29D-02
 IDIUse=3 WtCom= 8.99D-01 WtEn= 1.01D-01
 Coeff-Com: -0.161D-03 0.351D+00 0.650D+00
 Coeff-En:   0.000D+00 0.128D+00 0.872D+00
 Coeff:     -0.144D-03 0.328D+00 0.672D+00
 Gap=     0.499 Goal=   None    Shift=    0.000
 Gap=     0.489 Goal=   None    Shift=    0.000
 RMSDP=1.54D-03 MaxDP=1.23D-02 DE=-4.41D-03 OVMax= 1.54D-02

 Cycle   4  Pass 0  IDiag  1:
 E= -40.9805791216122     Delta-E=       -0.001746529090 Rises=F Damp=F
 DIIS: error= 1.11D-03 at cycle   4 NSaved=   4.
 NSaved= 4 IEnMin= 4 EnMin= -40.9805791216122     IErMin= 4 ErrMin= 1.11D-03
 ErrMax= 1.11D-03  0.00D+00 EMaxC= 1.00D-01 BMatC= 6.60D-05 BMatP= 6.90D-03
 IDIUse=3 WtCom= 9.89D-01 WtEn= 1.11D-02
 Coeff-Com: -0.418D-02-0.177D+00-0.234D+00 0.142D+01
 Coeff-En:   0.000D+00 0.000D+00 0.000D+00 0.100D+01
 Coeff:     -0.413D-02-0.175D+00-0.232D+00 0.141D+01
 Gap=     0.501 Goal=   None    Shift=    0.000
 Gap=     0.484 Goal=   None    Shift=    0.000
 RMSDP=3.86D-04 MaxDP=4.33D-03 DE=-1.75D-03 OVMax= 4.37D-03

 Cycle   5  Pass 0  IDiag  1:
 E= -40.9806165132947     Delta-E=       -0.000037391682 Rises=F Damp=F
 DIIS: error= 1.10D-04 at cycle   5 NSaved=   5.
 NSaved= 5 IEnMin= 5 EnMin= -40.9806165132947     IErMin= 5 ErrMin= 1.10D-04
 ErrMax= 1.10D-04  0.00D+00 EMaxC= 1.00D-01 BMatC= 1.15D-06 BMatP= 6.60D-05
 IDIUse=3 WtCom= 9.99D-01 WtEn= 1.10D-03
 Coeff-Com:  0.284D-03 0.514D-02 0.864D-03-0.131D+00 0.113D+01
 Coeff-En:   0.000D+00 0.000D+00 0.000D+00 0.000D+00 0.100D+01
 Coeff:      0.284D-03 0.513D-02 0.863D-03-0.131D+00 0.113D+01
 Gap=     0.500 Goal=   None    Shift=    0.000
 Gap=     0.484 Goal=   None    Shift=    0.000
 RMSDP=4.91D-05 MaxDP=3.93D-04 DE=-3.74D-05 OVMax= 5.55D-04

 Cycle   6  Pass 0  IDiag  1:
 E= -40.9806173733176     Delta-E=       -0.000000860023 Rises=F Damp=F
 DIIS: error= 4.17D-05 at cycle   6 NSaved=   6.
 NSaved= 6 IEnMin= 6 EnMin= -40.9806173733176     IErMin= 6 ErrMin= 4.17D-05
 ErrMax= 4.17D-05  0.00D+00 EMaxC= 1.00D-01 BMatC= 1.10D-07 BMatP= 1.15D-06
 IDIUse=1 WtCom= 1.00D+00 WtEn= 0.00D+00
 Coeff-Com:  0.234D-03 0.127D-01 0.163D-01-0.894D-01-0.118D+00 0.118D+01
 Coeff:      0.234D-03 0.127D-01 0.163D-01-0.894D-01-0.118D+00 0.118D+01
 Gap=     0.500 Goal=   None    Shift=    0.000
 Gap=     0.484 Goal=   None    Shift=    0.000
 RMSDP=1.65D-05 MaxDP=9.74D-05 DE=-8.60D-07 OVMax= 1.47D-04

 Cycle   7  Pass 0  IDiag  1:
 E= -40.9806174552826     Delta-E=       -0.000000081965 Rises=F Damp=F
 DIIS: error= 1.01D-05 at cycle   7 NSaved=   7.
 NSaved= 7 IEnMin= 7 EnMin= -40.9806174552826     IErMin= 7 ErrMin= 1.01D-05
 ErrMax= 1.01D-05  0.00D+00 EMaxC= 1.00D-01 BMatC= 6.82D-09 BMatP= 1.10D-07
 IDIUse=1 WtCom= 1.00D+00 WtEn= 0.00D+00
 Coeff-Com: -0.502D-04-0.207D-02-0.249D-02 0.211D-01-0.493D-01-0.204D+00
 Coeff-Com:  0.124D+01
 Coeff:     -0.502D-04-0.207D-02-0.249D-02 0.211D-01-0.493D-01-0.204D+00
 Coeff:      0.124D+01
 Gap=     0.500 Goal=   None    Shift=    0.000
 Gap=     0.484 Goal=   None    Shift=    0.000
 RMSDP=5.40D-06 MaxDP=4.16D-05 DE=-8.20D-08 OVMax= 4.06D-05

 Initial convergence to 1.0D-05 achieved.  Increase integral accuracy.
 Cycle   8  Pass 1  IDiag  1:
 E= -40.9806313184796     Delta-E=       -0.000013863197 Rises=F Damp=F
 DIIS: error= 2.22D-05 at cycle   1 NSaved=   1.
 NSaved= 1 IEnMin= 1 EnMin= -40.9806313184796     IErMin= 1 ErrMin= 2.22D-05
 ErrMax= 2.22D-05  0.00D+00 EMaxC= 1.00D-01 BMatC= 3.34D-08 BMatP= 3.34D-08
 IDIUse=1 WtCom= 1.00D+00 WtEn= 0.00D+00
 Coeff-Com:  0.100D+01
 Coeff:      0.100D+01
 Gap=     0.500 Goal=   None    Shift=    0.000
 Gap=     0.484 Goal=   None    Shift=    0.000
 RMSDP=5.40D-06 MaxDP=4.16D-05 DE=-1.39D-05 OVMax= 3.77D-05

 Cycle   9  Pass 1  IDiag  1:
 E= -40.9806313284604     Delta-E=       -0.000000009981 Rises=F Damp=F
 DIIS: error= 3.99D-06 at cycle   2 NSaved=   2.
 NSaved= 2 IEnMin= 2 EnMin= -40.9806313284604     IErMin= 2 ErrMin= 3.99D-06
 ErrMax= 3.99D-06  0.00D+00 EMaxC= 1.00D-01 BMatC= 1.48D-09 BMatP= 3.34D-08
 IDIUse=1 WtCom= 1.00D+00 WtEn= 0.00D+00
 Coeff-Com: -0.728D-01 0.107D+01
 Coeff:     -0.728D-01 0.107D+01
 Gap=     0.500 Goal=   None    Shift=    0.000
 Gap=     0.484 Goal=   None    Shift=    0.000
 RMSDP=1.15D-06 MaxDP=8.95D-06 DE=-9.98D-09 OVMax= 1.51D-05

 Cycle  10  Pass 1  IDiag  1:
 E= -40.9806313291763     Delta-E=       -0.000000000716 Rises=F Damp=F
 DIIS: error= 2.43D-06 at cycle   3 NSaved=   3.
 NSaved= 3 IEnMin= 3 EnMin= -40.9806313291763     IErMin= 3 ErrMin= 2.43D-06
 ErrMax= 2.43D-06  0.00D+00 EMaxC= 1.00D-01 BMatC= 3.36D-10 BMatP= 1.48D-09
 IDIUse=1 WtCom= 1.00D+00 WtEn= 0.00D+00
 Coeff-Com: -0.587D-01 0.222D+00 0.836D+00
 Coeff:     -0.587D-01 0.222D+00 0.836D+00
 Gap=     0.500 Goal=   None    Shift=    0.000
 Gap=     0.484 Goal=   None    Shift=    0.000
 RMSDP=4.53D-07 MaxDP=3.96D-06 DE=-7.16D-10 OVMax= 4.86D-06

 Cycle  11  Pass 1  IDiag  1:
 E= -40.9806313293018     Delta-E=       -0.000000000125 Rises=F Damp=F
 DIIS: error= 9.63D-07 at cycle   4 NSaved=   4.
 NSaved= 4 IEnMin= 4 EnMin= -40.9806313293018     IErMin= 4 ErrMin= 9.63D-07
 ErrMax= 9.63D-07  0.00D+00 EMaxC= 1.00D-01 BMatC= 5.45D-11 BMatP= 3.36D-10
 IDIUse=1 WtCom= 1.00D+00 WtEn= 0.00D+00
 Coeff-Com:  0.177D-02-0.130D+00 0.177D+00 0.951D+00
 Coeff:      0.177D-02-0.130D+00 0.177D+00 0.951D+00
 Gap=     0.500 Goal=   None    Shift=    0.000
 Gap=     0.484 Goal=   None    Shift=    0.000
 RMSDP=2.38D-07 MaxDP=1.48D-06 DE=-1.25D-10 OVMax= 3.56D-06

 Cycle  12  Pass 1  IDiag  1:
 E= -40.9806313293308     Delta-E=       -0.000000000029 Rises=F Damp=F
 DIIS: error= 2.53D-07 at cycle   5 NSaved=   5.
 NSaved= 5 IEnMin= 5 EnMin= -40.9806313293308     IErMin= 5 ErrMin= 2.53D-07
 ErrMax= 2.53D-07  0.00D+00 EMaxC= 1.00D-01 BMatC= 3.17D-12 BMatP= 5.45D-11
 IDIUse=1 WtCom= 1.00D+00 WtEn= 0.00D+00
 Coeff-Com:  0.597D-02-0.327D-01-0.806D-01 0.580D-01 0.105D+01
 Coeff:      0.597D-02-0.327D-01-0.806D-01 0.580D-01 0.105D+01
 Gap=     0.500 Goal=   None    Shift=    0.000
 Gap=     0.484 Goal=   None    Shift=    0.000
 RMSDP=9.01D-08 MaxDP=4.73D-07 DE=-2.90D-11 OVMax= 1.31D-06

 Cycle  13  Pass 1  IDiag  1:
 E= -40.9806313293334     Delta-E=       -0.000000000003 Rises=F Damp=F
 DIIS: error= 5.52D-08 at cycle   6 NSaved=   6.
 NSaved= 6 IEnMin= 6 EnMin= -40.9806313293334     IErMin= 6 ErrMin= 5.52D-08
 ErrMax= 5.52D-08  0.00D+00 EMaxC= 1.00D-01 BMatC= 1.62D-13 BMatP= 3.17D-12
 IDIUse=1 WtCom= 1.00D+00 WtEn= 0.00D+00
 Coeff-Com: -0.118D-02 0.119D-01 0.859D-02-0.542D-01-0.260D+00 0.129D+01
 Coeff:     -0.118D-02 0.119D-01 0.859D-02-0.542D-01-0.260D+00 0.129D+01
 Gap=     0.500 Goal=   None    Shift=    0.000
 Gap=     0.484 Goal=   None    Shift=    0.000
 RMSDP=3.24D-08 MaxDP=3.01D-07 DE=-2.63D-12 OVMax= 3.52D-07

 Cycle  14  Pass 1  IDiag  1:
 E= -40.9806313293337     Delta-E=       -0.000000000000 Rises=F Damp=F
 DIIS: error= 1.29D-08 at cycle   7 NSaved=   7.
 NSaved= 7 IEnMin= 7 EnMin= -40.9806313293337     IErMin= 7 ErrMin= 1.29D-08
 ErrMax= 1.29D-08  0.00D+00 EMaxC= 1.00D-01 BMatC= 1.27D-14 BMatP= 1.62D-13
 IDIUse=1 WtCom= 1.00D+00 WtEn= 0.00D+00
 Coeff-Com: -0.780D-05-0.158D-02 0.248D-02 0.135D-01 0.196D-01-0.458D+00
 Coeff-Com:  0.142D+01
 Coeff:     -0.780D-05-0.158D-02 0.248D-02 0.135D-01 0.196D-01-0.458D+00
 Coeff:      0.142D+01
 Gap=     0.500 Goal=   None    Shift=    0.000
 Gap=     0.484 Goal=   None    Shift=    0.000
 RMSDP=1.21D-08 MaxDP=1.28D-07 DE=-2.27D-13 OVMax= 1.07D-07

 Cycle  15  Pass 1  IDiag  1:
 E= -40.9806313293336     Delta-E=        0.000000000000 Rises=F Damp=F
 DIIS: error= 3.43D-09 at cycle   8 NSaved=   8.
 NSaved= 8 IEnMin= 7 EnMin= -40.9806313293337     IErMin= 8 ErrMin= 3.43D-09
 ErrMax= 3.43D-09  0.00D+00 EMaxC= 1.00D-01 BMatC= 5.91D-16 BMatP= 1.27D-14
 IDIUse=1 WtCom= 1.00D+00 WtEn= 0.00D+00
 Coeff-Com:  0.508D-04 0.163D-03-0.150D-02-0.208D-02 0.855D-03 0.127D+00
 Coeff-Com: -0.550D+00 0.143D+01
 Coeff:      0.508D-04 0.163D-03-0.150D-02-0.208D-02 0.855D-03 0.127D+00
 Coeff:     -0.550D+00 0.143D+01
 Gap=     0.500 Goal=   None    Shift=    0.000
 Gap=     0.484 Goal=   None    Shift=    0.000
 RMSDP=2.60D-09 MaxDP=2.84D-08 DE= 4.26D-14 OVMax= 2.69D-08

 SCF Done:  E(UwB97XD) =  -40.9806313293     A.U. after   15 cycles
            NFock= 15  Conv=0.26D-08     -V/T= 2.0096
 <Sx>= 0.0000 <Sy>= 0.0000 <Sz>= 0.5000 <S**2>= 0.7567 S= 0.5034
 <L.S>= 0.000000000000E+00
 KE= 4.059239116418D+01 PE=-1.249887139243D+02 EE= 2.787379659781D+01
 Annihilation of the first spin contaminant:
 S**2 before annihilation     0.7567,   after     0.7500
 Leave Link  502 at Thu Aug  5 16:41:01 2021, MaxMem=  2684354560 cpu:        10.4
 (Enter /soft/gaussian/09-e.01/g09/l508.exe)
 QCSCF skips out because SCF is already converged.
 Leave Link  508 at Thu Aug  5 16:41:01 2021, MaxMem=  2684354560 cpu:         0.0
 (Enter /soft/gaussian/09-e.01/g09/l801.exe)
 DoSCS=F DFT=T ScalE2(SS,OS)=  1.000000  1.000000
 Range of M.O.s used for correlation:     1    25
 NBasis=    25 NAE=     6 NBE=     5 NFC=     0 NFV=     0
 NROrb=     25 NOA=     6 NOB=     5 NVA=    19 NVB=    20
 Leave Link  801 at Thu Aug  5 16:41:02 2021, MaxMem=  2684354560 cpu:         0.2
 (Enter /soft/gaussian/09-e.01/g09/l1101.exe)
 Using compressed storage, NAtomX=     6.
 Will process      7 centers per pass.
 R6Disp: Adding Grimme-D2 dispersion energy 1st derivatives to the gradient.
 Leave Link 1101 at Thu Aug  5 16:41:02 2021, MaxMem=  2684354560 cpu:         1.4
 (Enter /soft/gaussian/09-e.01/g09/l1102.exe)
 Symmetrizing basis deriv contribution to polar:
 IMax=3 JMax=2 DiffMx= 0.00D+00
 Leave Link 1102 at Thu Aug  5 16:41:02 2021, MaxMem=  2684354560 cpu:         0.1
 (Enter /soft/gaussian/09-e.01/g09/l1110.exe)
 Forming Gx(P) for the SCF density, NAtomX=     6.
 Integral derivatives from FoFJK, PRISM(SPDF).
 Do as many integral derivatives as possible in FoFJK.
 G2DrvN: MDV=    2684354408.
 G2DrvN: will do     7 centers at a time, making    1 passes.
 Calling FoFCou, ICntrl=  3107 FMM=F I1Cent=   0 AccDes= 0.00D+00.
 FoFJK:  IHMeth= 1 ICntrl=    3107 DoSepK=T KAlg= 0 I1Cent=   0 FoldK=F
 IRaf=         1 NMat=   1 IRICut=       1 DoRegI=T DoRafI=F ISym2E= 0.
 FoFCou: FMM=F IPFlag=           0 FMFlag=      100000 FMFlg1=           0
         NFxFlg=           0 DoJE=F BraDBF=F KetDBF=F FulRan=T
         wScrn=  0.000000 ICntrl=    3507 IOpCl=  0 I1Cent=           0 NGrid=           0
         NMat0=    1 NMatS0=      1 NMatT0=    0 NMatD0=    1 NMtDS0=    0 NMtDT0=    0
 Symmetry not used in FoFCou.
 End of G2Drv F.D. properties file   721 does not exist.
 End of G2Drv F.D. properties file   722 does not exist.
 End of G2Drv F.D. properties file   788 does not exist.
 Leave Link 1110 at Thu Aug  5 16:41:03 2021, MaxMem=  2684354560 cpu:        10.4
 (Enter /soft/gaussian/09-e.01/g09/l1002.exe)
 Minotr:  UHF open shell wavefunction.
          IDoAtm=111111
          Direct CPHF calculation.
          Differentiating once with respect to nuclear coordinates.
          Requested convergence is 1.0D-08 RMS, and 1.0D-07 maximum.
          Secondary convergence is 1.0D-12 RMS, and 1.0D-12 maximum.
          NewPWx=T KeepS1=F KeepF1=F KeepIn=T MapXYZ=F SortEE=F KeepMc=T.
          MDV=    2684354446 using IRadAn=       1.
 Generate precomputed XC quadrature information.
 Keep R1 and R2 ints in memory in canonical form, NReq=1073081.
 FoFCou: FMM=F IPFlag=           0 FMFlag=           0 FMFlg1=           0
         NFxFlg=           0 DoJE=F BraDBF=F KetDBF=F FulRan=T
         wScrn=  0.000000 ICntrl=     600 IOpCl=  0 I1Cent=           0 NGrid=           0
         NMat0=    1 NMatS0=    325 NMatT0=    0 NMatD0=    1 NMtDS0=    0 NMtDT0=    0
 Symmetry not used in FoFCou.
          Solving linear equations simultaneously, MaxMat=       0.
          There are    21 degrees of freedom in the 1st order CPHF.  IDoFFX=6 NUNeed=     0.
     15 vectors produced by pass  0 Test12= 1.02D-15 4.76D-09 XBig12= 9.36D-02 1.93D-01.
 AX will form    15 AO Fock derivatives at one time.
     15 vectors produced by pass  1 Test12= 1.02D-15 4.76D-09 XBig12= 1.89D-03 1.81D-02.
     15 vectors produced by pass  2 Test12= 1.02D-15 4.76D-09 XBig12= 3.99D-05 2.62D-03.
     15 vectors produced by pass  3 Test12= 1.02D-15 4.76D-09 XBig12= 4.78D-07 2.21D-04.
     15 vectors produced by pass  4 Test12= 1.02D-15 4.76D-09 XBig12= 6.03D-09 2.41D-05.
     15 vectors produced by pass  5 Test12= 1.02D-15 4.76D-09 XBig12= 4.29D-11 2.16D-06.
      6 vectors produced by pass  6 Test12= 1.02D-15 4.76D-09 XBig12= 2.08D-13 1.30D-07.
      1 vectors produced by pass  7 Test12= 1.02D-15 4.76D-09 XBig12= 1.44D-15 1.23D-08.
 InvSVY:  IOpt=1 It=  1 EMax= 1.89D-15
 Solved reduced A of dimension    97 with    15 vectors.
 End of Minotr F.D. properties file   721 does not exist.
 End of Minotr F.D. properties file   722 does not exist.
 End of Minotr F.D. properties file   788 does not exist.
 Leave Link 1002 at Thu Aug  5 16:41:04 2021, MaxMem=  2684354560 cpu:         6.7
 (Enter /soft/gaussian/09-e.01/g09/l601.exe)
 Copying SCF densities to generalized density rwf, IOpCl= 1 IROHF=0.

 **********************************************************************

            Population analysis using the SCF density.

 **********************************************************************

 Orbital symmetries:
 Alpha Orbitals:
       Occupied  (A) (A) (A) (A) (A) (A)
       Virtual   (A) (A) (A) (A) (A) (A) (A) (A) (A) (A) (A) (A)
                 (A) (A) (A) (A) (A) (A) (A)
 Beta  Orbitals:
       Occupied  (A) (A) (A) (A) (A)
       Virtual   (A) (A) (A) (A) (A) (A) (A) (A) (A) (A) (A) (A)
                 (A) (A) (A) (A) (A) (A) (A) (A)
 The electronic state is 2-A.
 Alpha  occ. eigenvalues --  -10.30072  -0.80605  -0.54704  -0.49541  -0.49531
 Alpha  occ. eigenvalues --   -0.29533
 Alpha virt. eigenvalues --    0.20506   0.25214   0.25216   0.30455   0.61066
 Alpha virt. eigenvalues --    0.61072   0.64561   0.81034   0.98869   0.98877
 Alpha virt. eigenvalues --    1.03085   1.04786   1.30639   1.71761   1.71765
 Alpha virt. eigenvalues --    2.20175   2.30677   2.30705   4.27657
  Beta  occ. eigenvalues --  -10.29330  -0.78330  -0.49454  -0.48813  -0.48803
  Beta virt. eigenvalues --   -0.00365   0.21064   0.25827   0.25829   0.33073
  Beta virt. eigenvalues --    0.61406   0.61412   0.67911   0.86633   0.99707
  Beta virt. eigenvalues --    0.99716   1.04744   1.06664   1.32310   1.74563
  Beta virt. eigenvalues --    1.74566   2.23492   2.32128   2.32155   4.30326
          Condensed to atoms (all electrons):
               1          2          3          4          5          6
     1  C    5.414232   0.373771   0.373826   0.373827   0.211677  -0.152967
     2  H    0.373771   0.495577  -0.022398  -0.022426  -0.019609   0.003380
     3  H    0.373826  -0.022398   0.495612  -0.022449  -0.019666   0.003379
     4  H    0.373827  -0.022426  -0.022449   0.495812  -0.019814   0.003377
     5  H    0.211677  -0.019609  -0.019666  -0.019814   0.640028   0.172171
     6  H   -0.152967   0.003380   0.003379   0.003377   0.172171   0.986582
          Atomic-Atomic Spin Densities.
               1          2          3          4          5          6
     1  C    0.726890  -0.020765  -0.020738  -0.020786   0.030196  -0.175356
     2  H   -0.020765  -0.009653   0.003374   0.003378   0.003502   0.005538
     3  H   -0.020738   0.003374  -0.009713   0.003374   0.003510   0.005538
     4  H   -0.020786   0.003378   0.003374  -0.009738   0.003550   0.005561
     5  H    0.030196   0.003502   0.003510   0.003550  -0.164028  -0.015786
     6  H   -0.175356   0.005538   0.005538   0.005561  -0.015786   0.838064
 Mulliken charges and spin densities:
               1          2
     1  C   -0.594366   0.519441
     2  H    0.191704  -0.014625
     3  H    0.191696  -0.014656
     4  H    0.191674  -0.014661
     5  H    0.035213  -0.139057
     6  H   -0.015921   0.663559
 Sum of Mulliken charges =   0.00000   1.00000
 Mulliken charges and spin densities with hydrogens summed into heavy atoms:
               1          2
     1  C    0.000000   1.000000
 APT charges:
               1
     1  C   -1.127843
     2  H    0.375595
     3  H    0.375559
     4  H    0.375381
     5  H   -0.018732
     6  H    0.020040
 Sum of APT charges =   0.00000
 APT charges with hydrogens summed into heavy atoms:
               1
     1  C    0.000000
 Electronic spatial extent (au):  <R**2>=             56.0168
 Charge=              0.0000 electrons
 Dipole moment (field-independent basis, Debye):
    X=             -0.7595    Y=             -0.0006    Z=              0.0012  Tot=              0.7595
 Quadrupole moment (field-independent basis, Debye-Ang):
   XX=            -11.2584   YY=             -9.2717   ZZ=             -9.2740
   XY=             -0.0014   XZ=              0.0037   YZ=              0.0000
 Traceless Quadrupole moment (field-independent basis, Debye-Ang):
   XX=             -1.3237   YY=              0.6630   ZZ=              0.6607
   XY=             -0.0014   XZ=              0.0037   YZ=              0.0000
 Octapole moment (field-independent basis, Debye-Ang**2):
  XXX=             -5.5624  YYY=              0.4235  ZZZ=              0.6200  XYY=             -1.5033
  XXY=              0.0006  XXZ=             -0.0010  XZZ=             -1.4977  YZZ=             -0.4267
  YYZ=             -0.6141  XYZ=             -0.0003
 Hexadecapole moment (field-independent basis, Debye-Ang**3):
 XXXX=            -58.6959 YYYY=            -15.8627 ZZZZ=            -15.8601 XXXY=             -0.0043
 XXXZ=              0.0105 YYYX=             -0.2844 YYYZ=              0.0018 ZZZX=             -0.3997
 ZZZY=             -0.0017 XXYY=            -11.3820 XXZZ=            -11.3877 YYZZ=             -5.2881
 XXYZ=              0.0004 YYXZ=              0.4094 ZZXY=              0.2807
 N-N= 1.554189483297D+01 E-N=-1.249887139324D+02  KE= 4.059239116418D+01
  Exact polarizability:   0.000   0.000   0.000   0.000   0.000   0.000
 Approx polarizability:  23.195  -0.008  11.323   0.008  -0.000  11.321
                          Isotropic Fermi Contact Couplings
        Atom                 a.u.       MegaHertz       Gauss      10(-4) cm-1
     1  C(13)              0.17434     195.99387      69.93548      65.37652
     2  H(1)              -0.00523     -23.39078      -8.34641      -7.80233
     3  H(1)              -0.00525     -23.45796      -8.37038      -7.82473
     4  H(1)              -0.00527     -23.54861      -8.40273      -7.85497
     5  H(1)              -0.03053    -136.46784     -48.69512     -45.52077
     6  H(1)               0.21946     980.95604     350.02949     327.21171
 --------------------------------------------------------
       Center         ----  Spin Dipole Couplings  ----
                      3XX-RR        3YY-RR        3ZZ-RR
 --------------------------------------------------------
     1   Atom        0.554416     -0.277231     -0.277185
     2   Atom        0.003057      0.026295     -0.029352
     3   Atom        0.003025      0.002729     -0.005754
     4   Atom        0.002931     -0.033474      0.030543
     5   Atom        0.235920     -0.117961     -0.117959
     6   Atom       -0.017246      0.008623      0.008624
 --------------------------------------------------------
                        XY            XZ            YZ
 --------------------------------------------------------
     1   Atom        0.000871     -0.001626     -0.000001
     2   Atom       -0.018893      0.006233     -0.020808
     3   Atom        0.014927      0.013116      0.034502
     4   Atom        0.003993     -0.019385     -0.013697
     5   Atom       -0.000047     -0.000005      0.000001
     6   Atom        0.000037     -0.000005     -0.000000
 --------------------------------------------------------


 ---------------------------------------------------------------------------------
              Anisotropic Spin Dipole Couplings in Principal Axis System
 ---------------------------------------------------------------------------------

       Atom             a.u.   MegaHertz   Gauss  10(-4) cm-1        Axes

              Baa    -0.2772   -37.202   -13.275   -12.409 -0.0011  0.9999 -0.0129
     1 C(13)  Bbb    -0.2772   -37.196   -13.272   -12.407  0.0019  0.0129  0.9999
              Bcc     0.5544    74.398    26.547    24.816  1.0000  0.0010 -0.0020
 
              Baa    -0.0363   -19.353    -6.906    -6.456  0.0014  0.3160  0.9488
     2 H(1)   Bbb    -0.0068    -3.643    -1.300    -1.215  0.8956  0.4218 -0.1418
              Bcc     0.0431    22.996     8.206     7.671 -0.4449  0.8499 -0.2824
 
              Baa    -0.0363   -19.354    -6.906    -6.456  0.0020 -0.6630  0.7486
     3 H(1)   Bbb    -0.0068    -3.643    -1.300    -1.215  0.8959 -0.3314 -0.2958
              Bcc     0.0431    22.997     8.206     7.671  0.4442  0.6713  0.5933
 
              Baa    -0.0363   -19.358    -6.908    -6.457 -0.0006  0.9797  0.2006
     4 H(1)   Bbb    -0.0068    -3.639    -1.298    -1.214  0.8970 -0.0882  0.4331
              Bcc     0.0431    22.997     8.206     7.671 -0.4420 -0.1802  0.8787
 
              Baa    -0.1180   -62.939   -22.458   -20.994  0.0001  0.9684 -0.2493
     5 H(1)   Bbb    -0.1180   -62.937   -22.458   -20.994  0.0000  0.2493  0.9684
              Bcc     0.2359   125.876    44.916    41.988  1.0000 -0.0001 -0.0000
 
              Baa    -0.0172    -9.202    -3.283    -3.069  1.0000 -0.0014  0.0002
     6 H(1)   Bbb     0.0086     4.601     1.642     1.535  0.0014  0.9928  0.1194
              Bcc     0.0086     4.601     1.642     1.535 -0.0004 -0.1194  0.9929
 

 ---------------------------------------------------------------------------------

 No NMR shielding tensors so no spin-rotation constants.
 Leave Link  601 at Thu Aug  5 16:41:04 2021, MaxMem=  2684354560 cpu:         2.6
 (Enter /soft/gaussian/09-e.01/g09/l701.exe)
 Compute integral second derivatives.
 ... and contract with generalized density number  0.
 R6Disp: Adding Grimme-D2 dispersion energy 2nd derivatives to the Hessian.
 Leave Link  701 at Thu Aug  5 16:41:04 2021, MaxMem=  2684354560 cpu:         1.9
 (Enter /soft/gaussian/09-e.01/g09/l702.exe)
 L702 exits ... SP integral derivatives will be done elsewhere.
 Leave Link  702 at Thu Aug  5 16:41:04 2021, MaxMem=  2684354560 cpu:         0.1
 (Enter /soft/gaussian/09-e.01/g09/l703.exe)
 Compute integral second derivatives, UseDBF=F ICtDFT=           0.
 Integral derivatives from FoFJK, PRISM(SPDF).
 Calling FoFJK, ICntrl=    100147 FMM=F ISym2X=0 I1Cent= 0 IOpClX= 1 NMat=1 NMatS=1 NMatT=0.
 FoFJK:  IHMeth= 1 ICntrl=  100147 DoSepK=T KAlg= 0 I1Cent=   0 FoldK=F
 IRaf=         1 NMat=   1 IRICut=       1 DoRegI=T DoRafI=F ISym2E= 0.
 FoFCou: FMM=F IPFlag=           0 FMFlag=      100000 FMFlg1=         800
         NFxFlg=           0 DoJE=F BraDBF=F KetDBF=F FulRan=T
         wScrn=  0.000000 ICntrl=  100547 IOpCl=  0 I1Cent=           0 NGrid=           0
         NMat0=    1 NMatS0=      1 NMatT0=    0 NMatD0=    1 NMtDS0=    0 NMtDT0=    0
 Symmetry not used in FoFCou.
 Leave Link  703 at Thu Aug  5 16:41:06 2021, MaxMem=  2684354560 cpu:        12.0
 (Enter /soft/gaussian/09-e.01/g09/l716.exe)
 Dipole        =-2.98796064D-01-2.23884054D-04 4.73991525D-04
 Polarizability= 0.00000000D+00 0.00000000D+00 0.00000000D+00
                 0.00000000D+00 0.00000000D+00 0.00000000D+00
 ***** Axes restored to original set *****
 -------------------------------------------------------------------
 Center     Atomic                   Forces (Hartrees/Bohr)
 Number     Number              X              Y              Z
 -------------------------------------------------------------------
      1        6          -0.000160287   -0.000057530   -0.000107785
      2        1          -0.000022834   -0.000106111   -0.000010728
      3        1          -0.000012163   -0.000124469   -0.000006811
      4        1          -0.000035429   -0.000004074   -0.000003013
      5        1           0.006363141    0.013058019    0.004211427
      6        1          -0.006132429   -0.012765835   -0.004083090
 -------------------------------------------------------------------
 Cartesian Forces:  Max     0.013058019 RMS     0.004978018
 -----------------------------------------------------------------------------------------------
                       Internal Coordinate Forces (Hartree/Bohr or radian)
  Cent   Atom   N1       Length/X         N2         Alpha/Y        N3         Beta/Z          J
 -----------------------------------------------------------------------------------------------
      1  C 
      2  H        1  -0.000011(     1)
      3  H        1  -0.000009(     2)      2   0.000023(     7)
      4  H        1   0.000019(     3)      2  -0.000009(     8)      3  -0.000057(    12)     0
      5  H        1  -0.000385(     4)      2  -0.000107(     9)      3  -0.000184(    13)     0
         X        5   0.000000(     5)      1  -0.000053(    10)      2  -0.000000(    14)     0
      6  H        5   0.014739(     6)      6  -0.000053(    11)      1   0.000002(    15)     0
 -----------------------------------------------------------------------------------------------
 Internal  Forces:  Max     0.014739200 RMS     0.003807425
 Force constants in Cartesian coordinates: 
                1             2             3             4             5 
      1  0.524284D+00
      2 -0.127886D+00  0.318189D+00
      3 -0.407269D-01 -0.851644D-01  0.558516D+00
      4 -0.476254D-01  0.761722D-02 -0.113801D-02  0.443552D-01
      5  0.763143D-02 -0.354008D-01 -0.243932D-02 -0.478596D-02  0.366732D-01
      6  0.246935D-02  0.519759D-02 -0.340749D+00 -0.124168D-02 -0.263552D-02
      7 -0.296619D+00  0.772910D-02  0.106680D+00  0.401839D-02  0.224953D-03
      8  0.701095D-03 -0.353897D-01  0.795130D-02  0.900560D-03  0.188104D-03
      9  0.103072D+00  0.497350D-02 -0.918240D-01  0.302778D-01  0.888179D-03
     10 -0.142524D+00  0.125142D+00 -0.608032D-01  0.112974D-02 -0.140721D-02
     11  0.132162D+00 -0.189586D+00  0.880578D-01 -0.208999D-02  0.306130D-02
     12 -0.608089D-01  0.833963D-01 -0.917800D-01 -0.183255D-01  0.241744D-01
     13 -0.250024D-01  0.267160D-01  0.858338D-02 -0.231555D-02 -0.313433D-02
     14  0.267074D-01  0.176623D-01  0.177988D-01 -0.311115D-02 -0.732007D-02
     15  0.866214D-02  0.179558D-01 -0.321043D-01 -0.102849D-01 -0.214748D-01
     16 -0.125127D-01 -0.393180D-01 -0.125947D-01  0.437538D-03  0.147112D-02
     17 -0.393157D-01 -0.754753D-01 -0.262042D-01  0.146933D-02  0.279820D-02
     18 -0.126679D-01 -0.263588D-01 -0.205877D-02  0.712247D-03  0.148705D-02
                6             7             8             9            10 
      6  0.360283D+00
      7 -0.263201D-02  0.312354D+00
      8 -0.131842D-03 -0.428833D-02  0.366726D-01
      9 -0.754599D-02 -0.113406D+00 -0.336818D-02  0.923535D-01
     10  0.154824D-02 -0.122676D-01  0.217677D-01 -0.127265D-01  0.149597D+00
     11 -0.213371D-02 -0.276550D-02  0.305203D-02 -0.109770D-02 -0.135688D+00
     12 -0.757735D-02  0.715420D-02 -0.106355D-01  0.580979D-02  0.685640D-01
     13 -0.603243D-04 -0.837086D-02 -0.210129D-01 -0.773678D-02  0.313968D-02
     14 -0.121166D-03 -0.130730D-02 -0.732783D-02 -0.281739D-02 -0.117717D-01
     15 -0.511494D-02  0.247232D-02  0.538666D-02  0.947226D-03  0.261805D-02
     16 -0.835739D-04  0.885736D-03  0.193187D-02  0.518741D-03  0.924923D-03
     17 -0.175349D-03  0.407079D-03  0.280487D-02  0.142159D-02  0.195721D-02
     18  0.704568D-03 -0.268514D-03  0.797593D-03  0.259471D-03  0.799496D-03
               11            12            13            14            15 
     11  0.199683D+00
     12 -0.904029D-01  0.923454D-01
     13  0.792231D-02  0.262015D-02  0.342088D-01
     14 -0.190342D-01 -0.783792D-02 -0.202994D-01  0.201985D-02
     15  0.526449D-02  0.936941D-03 -0.657766D-02 -0.136036D-01  0.396177D-01
     16  0.459157D-03  0.796085D-03 -0.165961D-02  0.978213D-02  0.311002D-02
     17  0.282390D-02  0.130574D-02  0.980832D-02  0.139999D-01  0.647146D-02
     18  0.312090D-03  0.265260D-03  0.317123D-02  0.658127D-02 -0.428262D-02
               16            17            18 
     16  0.119241D-01
     17  0.256737D-01  0.530484D-01
     18  0.825348D-02  0.171807D-01  0.511209D-02
 Force constants in internal coordinates: 
                1             2             3             4             5 
      1  0.360283D+00
      2  0.486600D-03  0.360339D+00
      3  0.493470D-03  0.500365D-03  0.360511D+00
      4  0.153745D-02  0.153077D-02  0.156861D-02  0.100307D+00
      5  0.000000D+00  0.000000D+00  0.000000D+00  0.000000D+00  0.000000D+00
      6 -0.996834D-05 -0.912775D-05 -0.295589D-04  0.917027D-01  0.000000D+00
      7  0.164356D-01  0.245869D-02 -0.101323D-01 -0.998081D-02  0.000000D+00
      8  0.164964D-01 -0.101570D-01  0.269728D-02 -0.100716D-01  0.000000D+00
      9  0.849548D-02 -0.424384D-02 -0.425785D-02 -0.934843D-04  0.000000D+00
     10 -0.133762D-02  0.667892D-03  0.666301D-03 -0.207925D-04  0.000000D+00
     11 -0.133762D-02  0.667892D-03  0.666300D-03 -0.207925D-04  0.000000D+00
     12 -0.255797D-03 -0.120088D-01 -0.492378D-02  0.194356D-01  0.000000D+00
     13  0.214046D-05  0.705955D-02 -0.709933D-02 -0.142897D-03  0.000000D+00
     14  0.000000D+00  0.264197D-05 -0.244860D-05  0.000000D+00  0.000000D+00
     15 -0.100785D-05 -0.115502D-02  0.115603D-02  0.000000D+00  0.000000D+00
                6             7             8             9            10 
      6  0.709013D-01
      7  0.340004D-02  0.188330D+00
      8  0.345398D-02  0.460978D-01  0.188472D+00
      9  0.625009D-04  0.155288D-01  0.155550D-01  0.139356D+00
     10 -0.565377D-04 -0.127479D-02 -0.126740D-02 -0.383910D-02  0.256047D-01
     11 -0.565377D-04 -0.127479D-02 -0.126740D-02 -0.383910D-02  0.256047D-01
     12 -0.665493D-02  0.553465D-01  0.186406D-01 -0.416029D-01  0.573188D-03
     13  0.904258D-04 -0.367141D-01  0.367694D-01 -0.442845D-05  0.212264D-04
     14  0.000000D+00 -0.105009D-05  0.000000D+00  0.000000D+00  0.553940D-05
     15  0.000000D+00  0.391898D-03 -0.373179D-03  0.203734D-04  0.519238D-05
               11            12            13            14            15 
     11  0.256047D-01
     12  0.573187D-03  0.132750D+00
     13  0.212275D-04 -0.645696D-01  0.128819D+00
     14  0.553940D-05 -0.388839D-05  0.803944D-05  0.000000D+00
     15  0.519582D-05  0.180351D-02 -0.364855D-02 -0.356585D-05  0.256160D-01
 Leave Link  716 at Thu Aug  5 16:41:06 2021, MaxMem=  2684354560 cpu:         0.2
 (Enter /soft/gaussian/09-e.01/g09/l103.exe)

 GradGradGradGradGradGradGradGradGradGradGradGradGradGradGradGradGradGrad
 Berny optimization.
 Search for a saddle point.
 Step number   1 out of a maximum of   60
 All quantities printed in internal units (Hartrees-Bohrs-Radians)
 Swapping is turned off.
 Second derivative matrix not updated -- analytic derivatives used.
 The second derivative matrix:
                          R1        R2        R3        R4        R6
           R1           0.36028
           R2           0.00049   0.36034
           R3           0.00049   0.00050   0.36051
           R4           0.00154   0.00153   0.00157   0.10031
           R6          -0.00001  -0.00001  -0.00003   0.09170   0.07090
           A2           0.01644   0.00246  -0.01013  -0.00998   0.00340
           A3           0.01650  -0.01016   0.00270  -0.01007   0.00345
           A4           0.00850  -0.00424  -0.00426  -0.00009   0.00006
           A6          -0.00134   0.00067   0.00067  -0.00002  -0.00006
           D3          -0.00026  -0.01201  -0.00492   0.01944  -0.00665
           D4           0.00000   0.00706  -0.00710  -0.00014   0.00009
           D6          -0.00000  -0.00116   0.00116   0.00000  -0.00000
           R5           0.00000  -0.00000   0.00000   0.00000   0.00000
           A5          -0.00134   0.00067   0.00067  -0.00002  -0.00006
           D5          -0.00000   0.00000  -0.00000  -0.00000  -0.00000
                          A2        A3        A4        A6        D3
           A2           0.18833
           A3           0.04610   0.18847
           A4           0.01553   0.01556   0.13936
           A6          -0.00127  -0.00127  -0.00384   0.02560
           D3           0.05535   0.01864  -0.04160   0.00057   0.13275
           D4          -0.03671   0.03677  -0.00000   0.00002  -0.06457
           D6           0.00039  -0.00037   0.00002   0.00001   0.00180
           R5           0.00000   0.00000   0.00000   0.00000  -0.00000
           A5          -0.00127  -0.00127  -0.00384   0.02560   0.00057
           D5          -0.00000   0.00000  -0.00000   0.00001  -0.00000
                          D4        D6        R5        A5        D5
           D4           0.12882
           D6          -0.00365   0.02562
           R5           0.00000   0.00000   0.00000
           A5           0.00002   0.00001   0.00000   0.02560
           D5           0.00001  -0.00000   0.00000   0.00001   0.00000
 ITU=  0
     Eigenvalues ---   -0.01277   0.02546   0.02546   0.04620   0.09435
     Eigenvalues ---    0.15327   0.17801   0.21845   0.26369   0.36101
     Eigenvalues ---    0.36200   0.366161000.000001000.000001000.00000
 Eigenvectors required to have negative eigenvalues:
                          R6        R4        D3        D4        A2
   1                    0.72067  -0.63597   0.22257   0.09903  -0.07671
                          A4        A3        R1        R2        R3
   1                    0.07530  -0.07151   0.00760   0.00731   0.00683
 RFO step:  Lambda0=6.185174185D-03 Lambda=-7.85512474D-04.
 Linear search not attempted -- option 19 set.
 Maximum step size (   0.300) exceeded in Quadratic search.
    -- Step size scaled by   0.518
 Variable       Old X    -DE/DX   Delta X   Delta X   Delta X     New X
                                 (Linear)    (Quad)   (Total)
    R1        2.06037  -0.00001   0.00000  -0.00282  -0.00282   2.05755
    R2        2.06037  -0.00001   0.00000  -0.00284  -0.00284   2.05752
    R3        2.06037   0.00002   0.00000  -0.00298  -0.00298   2.05739
    R4        2.37123  -0.00038   0.00000   0.20330   0.20330   2.57453
    R6        1.83039   0.01474   0.00000  -0.18571  -0.18571   1.64468
    A2        1.96732   0.00002   0.00000   0.02866   0.02866   1.99598
    A3        1.96676  -0.00001   0.00000   0.02978   0.02978   1.99654
    A4        1.85125  -0.00011   0.00000  -0.03563  -0.03563   1.81562
    A6        1.57300  -0.00005   0.00000  -0.00156  -0.00156   1.57144
    D3        4.03362  -0.00006   0.00000  -0.09368  -0.09368   3.93993
    D4        2.01840  -0.00018   0.00000  -0.04898  -0.04898   1.96943
    D6        3.14174   0.00000   0.00000  -0.00024  -0.00024   3.14150
    R5        1.88973   0.00000   0.00000   0.00000   0.00000   1.88973
    A5        1.57080  -0.00005   0.00000   0.00000   0.00000   1.57080
    D5        0.00000  -0.00000   0.00000   0.00000   0.00000   0.00000
         Item               Value     Threshold  Converged?
 Maximum Force            0.014739     0.000450     NO 
 RMS     Force            0.004257     0.000300     NO 
 Maximum Displacement     0.203303     0.001800     NO 
 RMS     Displacement     0.077460     0.001200     NO 
 Predicted change in Energy= 2.342305D-03
 Lowest energy point so far.  Saving SCF results.
 GradGradGradGradGradGradGradGradGradGradGradGradGradGradGradGradGradGrad

 Leave Link  103 at Thu Aug  5 16:41:06 2021, MaxMem=  2684354560 cpu:         0.1
 (Enter /soft/gaussian/09-e.01/g09/l202.exe)
 ---------------------------------------------------------------------------------------------------
                            Z-MATRIX (ANGSTROMS AND DEGREES)
   CD    Cent   Atom    N1       Length/X        N2       Alpha/Y        N3        Beta/Z          J
 ---------------------------------------------------------------------------------------------------
      1      1  C 
      2      2  H        1   1.088808(     1)
      3      3  H        1   1.088795(     2)      2  114.361(     7)
      4      4  H        1   1.088725(     3)      2  114.393(     8)      3  225.742(    12)      0
      5      5  H        1   1.362383(     4)      2  104.027(     9)      3  112.840(    13)      0
      6         X        5   1.000000(     5)      1   90.000(    10)      2    0.000(    14)      0
      7      6  H        5   0.870326(     6)      6   90.037(    11)      1  179.995(    15)      0
 ---------------------------------------------------------------------------------------------------
                         Z-Matrix orientation:                         
 ---------------------------------------------------------------------
 Center     Atomic      Atomic             Coordinates (Angstroms)
 Number     Number       Type             X           Y           Z
 ---------------------------------------------------------------------
      1          6           0        0.000000    0.000000    0.000000
      2          1           0        0.000000    0.000000    1.088808
      3          1           0        0.991852    0.000000   -0.449113
      4          1           0       -0.691990    0.710140   -0.449638
      5          1           0       -0.513047   -1.218124   -0.330222
      6         -1           0       -0.607130   -1.441505    0.639958
      7          1           0       -0.840667   -1.996200   -0.541716
 ---------------------------------------------------------------------
                    Distance matrix (angstroms):
                    1          2          3          4          5
     1  C    0.000000
     2  H    1.088808   0.000000
     3  H    1.088795   1.830020   0.000000
     4  H    1.088725   1.830290   1.827463   0.000000
     5  H    1.362383   1.939249   1.939763   1.940227   0.000000
     6  X    1.689997   1.627270   2.412624   2.413295   1.000000
     7  H    2.232709   2.711115   2.711368   2.711984   0.870326
                    6          7
     6  X    0.000000
     7  H    1.326115   0.000000
 Stoichiometry    CH5(2)
 Framework group  C1[X(CH5)]
 Deg. of freedom    12
 Full point group                 C1      NOp   1
 RotChk:  IX=2 Diff= 5.37D-01
 Largest Abelian subgroup         C1      NOp   1
 Largest concise Abelian subgroup C1      NOp   1
                         Standard orientation:                         
 ---------------------------------------------------------------------
 Center     Atomic      Atomic             Coordinates (Angstroms)
 Number     Number       Type             X           Y           Z
 ---------------------------------------------------------------------
      1          6           0       -0.254651    0.000344    0.000062
      2          1           0       -0.518259    1.055782    0.045493
      3          1           0       -0.519369   -0.488794   -0.935962
      4          1           0       -0.520259   -0.568146    0.889777
      5          1           0        1.107733   -0.000052    0.000175
      6          1           0        1.978058   -0.000857    0.000143
 ---------------------------------------------------------------------
 Rotational constants (GHZ):    149.8586905     60.7317313     60.6833082
 Leave Link  202 at Thu Aug  5 16:41:06 2021, MaxMem=  2684354560 cpu:         0.1
 (Enter /soft/gaussian/09-e.01/g09/l301.exe)
 Standard basis: 6-31G(d) (6D, 7F)
 Ernie: Thresh=  0.10000D-02 Tol=  0.10000D-05 Strict=F.
 There are    25 symmetry adapted cartesian basis functions of A   symmetry.
 There are    25 symmetry adapted basis functions of A   symmetry.
    25 basis functions,    48 primitive gaussians,    25 cartesian basis functions
     6 alpha electrons        5 beta electrons
       nuclear repulsion energy        15.3809037379 Hartrees.
 IExCor= 4639 DFT=T Ex+Corr=wB97XD ExCW=0 ScaHFX=  1.000000
 ScaDFX=  1.000000  1.000000  1.000000  1.000000 ScalE2=  1.000000  1.000000
 IRadAn=      5 IRanWt=     -1 IRanGd=            0 ICorTp=0 IEmpDi=121
  HFx wShort=  0.000000 wLong=  0.200000 cFull=  0.222036 cShort=  0.000000 cLong=  0.777964
  DFx wShort=  0.000000 wLong=  0.200000 cFull=  0.000000 cShort=  0.000000 cLong=  1.000000
 NAtoms=    6 NActive=    6 NUniq=    6 SFac= 1.00D+00 NAtFMM=   60 NAOKFM=F Big=F
 Integral buffers will be    131072 words long.
 Raffenetti 2 integral format.
 Two-electron integral symmetry is turned on.
 R6Disp:  Grimme-D2 Dispersion energy=       -0.0009696592 Hartrees.
 Nuclear repulsion after empirical dispersion term =       15.3799340787 Hartrees.
 Leave Link  301 at Thu Aug  5 16:41:06 2021, MaxMem=  2684354560 cpu:         0.4
 (Enter /soft/gaussian/09-e.01/g09/l302.exe)
 NPDir=0 NMtPBC=     1 NCelOv=     1 NCel=       1 NClECP=     1 NCelD=      1
         NCelK=      1 NCelE2=     1 NClLst=     1 CellRange=     0.0.
 One-electron integrals computed using PRISM.
 NBasis=    25 RedAO= T EigKep=  1.38D-02  NBF=    25
 NBsUse=    25 1.00D-06 EigRej= -1.00D+00 NBFU=    25
 Precomputing XC quadrature grid using
 IXCGrd= 4 IRadAn=           5 IRanWt=          -1 IRanGd=           0 AccXCQ= 0.00D+00.
 Generated NRdTot=       0 NPtTot=           0 NUsed=           0 NTot=          32
 NSgBfM=    25    25    25    25    25 MxSgAt=     6 MxSgA2=     6.
 Leave Link  302 at Thu Aug  5 16:41:06 2021, MaxMem=  2684354560 cpu:         1.4
 (Enter /soft/gaussian/09-e.01/g09/l303.exe)
 DipDrv:  MaxL=1.
 Leave Link  303 at Thu Aug  5 16:41:06 2021, MaxMem=  2684354560 cpu:         0.2
 (Enter /soft/gaussian/09-e.01/g09/l401.exe)
 Initial guess from the checkpoint file:  "/scratch/kmoore/Gau-13210.chk"
 B after Tr=     0.000000    0.000000   -0.000000
         Rot=    0.983377   -0.181574    0.000553    0.000543 Ang= -20.92 deg.
 Guess basis will be translated and rotated to current coordinates.
 JPrj=2 DoOrth=T DoCkMO=T.
 Initial guess <Sx>= 0.0000 <Sy>= 0.0000 <Sz>= 0.5000 <S**2>= 0.7568 S= 0.5034
 Generating alternative initial guess.
 ExpMin= 1.61D-01 ExpMax= 3.05D+03 ExpMxC= 4.57D+02 IAcc=2 IRadAn=         4 AccDes= 0.00D+00
 Harris functional with IExCor= 4639 and IRadAn=       4 diagonalized for initial guess.
 HarFok:  IExCor= 4639 AccDes= 0.00D+00 IRadAn=         4 IDoV= 1 UseB2=F ITyADJ=14
 ICtDFT=  3500011 ScaDFX=  1.000000  1.000000  1.000000  1.000000
 FoFCou: FMM=F IPFlag=           0 FMFlag=      100000 FMFlg1=           0
         NFxFlg=           0 DoJE=T BraDBF=F KetDBF=T FulRan=T
         wScrn=  0.000000 ICntrl=     500 IOpCl=  0 I1Cent=   200000004 NGrid=           0
         NMat0=    1 NMatS0=      1 NMatT0=    0 NMatD0=    1 NMtDS0=    0 NMtDT0=    0
 Petite list used in FoFCou.
 Harris En= -38.5700171088806    
 Leave Link  401 at Thu Aug  5 16:41:06 2021, MaxMem=  2684354560 cpu:         1.9
 (Enter /soft/gaussian/09-e.01/g09/l502.exe)
 UHF open shell SCF:
 Using DIIS extrapolation, IDIIS=  1040.
 Integral symmetry usage will be decided dynamically.
 Keep R1 and R2 ints in memory in canonical form, NReq=1082368.
 IVT=        8268 IEndB=        8268 NGot=  2684354560 MDV=  2684134393
 LenX=  2684134393 LenY=  2684133327
 Requested convergence on RMS density matrix=1.00D-08 within  64 cycles.
 Requested convergence on MAX density matrix=1.00D-06.
 Requested convergence on             energy=1.00D-06.
 No special actions if energy rises.
 FoFCou: FMM=F IPFlag=           0 FMFlag=           0 FMFlg1=           0
         NFxFlg=           0 DoJE=F BraDBF=F KetDBF=F FulRan=T
         wScrn=  0.000000 ICntrl=     600 IOpCl=  0 I1Cent=           0 NGrid=           0
         NMat0=    1 NMatS0=    325 NMatT0=    0 NMatD0=    1 NMtDS0=    0 NMtDT0=    0
 Symmetry not used in FoFCou.
 Integral accuracy reduced to 1.0D-05 until final iterations.

 Cycle   1  Pass 0  IDiag  1:
 E= -40.9725503175331    
 DIIS: error= 1.53D-02 at cycle   1 NSaved=   1.
 NSaved= 1 IEnMin= 1 EnMin= -40.9725503175331     IErMin= 1 ErrMin= 1.53D-02
 ErrMax= 1.53D-02  0.00D+00 EMaxC= 1.00D-01 BMatC= 7.77D-03 BMatP= 7.77D-03
 IDIUse=3 WtCom= 8.47D-01 WtEn= 1.53D-01
 Coeff-Com:  0.100D+01
 Coeff-En:   0.100D+01
 Coeff:      0.100D+01
 Recover alternate guess density for next cycle.
 RMSDP=8.55D-03 MaxDP=7.73D-02              OVMax= 0.00D+00

 Cycle   2  Pass 0  IDiag  1:
 E= -40.9626255152042     Delta-E=        0.009924802329 Rises=F Damp=F
 Switch densities from cycles 1 and 2 for lowest energy.
 DIIS: error= 7.20D-02 at cycle   2 NSaved=   2.
 NSaved= 2 IEnMin= 1 EnMin= -40.9725503175331     IErMin= 1 ErrMin= 1.53D-02
 ErrMax= 7.20D-02  0.00D+00 EMaxC= 1.00D+00 BMatC= 1.54D-01 BMatP= 7.77D-03
 IDIUse=1 WtCom= 1.00D+00 WtEn= 0.00D+00
 Coeff-Com:  0.973D+00 0.272D-01
 Coeff:      0.973D+00 0.272D-01
 Gap=     0.492 Goal=   None    Shift=    0.000
 Gap=     0.484 Goal=   None    Shift=    0.000
 RMSDP=4.61D-02 MaxDP=1.00D+00 DE= 9.92D-03 OVMax= 6.33D-02

 Cycle   3  Pass 0  IDiag  1:
 E= -40.9774727224776     Delta-E=       -0.014847207273 Rises=F Damp=F
 DIIS: error= 6.24D-03 at cycle   3 NSaved=   3.
 NSaved= 3 IEnMin= 3 EnMin= -40.9774727224776     IErMin= 3 ErrMin= 6.24D-03
 ErrMax= 6.24D-03  0.00D+00 EMaxC= 1.00D+00 BMatC= 1.39D-03 BMatP= 7.77D-03
 IDIUse=1 WtCom= 1.00D+00 WtEn= 0.00D+00
 Coeff-Com: -0.444D-02 0.207D-01 0.984D+00
 Coeff:     -0.444D-02 0.207D-01 0.984D+00
 Gap=     0.489 Goal=   None    Shift=    0.000
 Gap=     0.493 Goal=   None    Shift=    0.000
 RMSDP=2.28D-03 MaxDP=3.03D-02 DE=-1.48D-02 OVMax= 2.51D-02

 Cycle   4  Pass 0  IDiag  1:
 E= -40.9783075382008     Delta-E=       -0.000834815723 Rises=F Damp=F
 DIIS: error= 3.86D-03 at cycle   4 NSaved=   4.
 NSaved= 4 IEnMin= 4 EnMin= -40.9783075382008     IErMin= 4 ErrMin= 3.86D-03
 ErrMax= 3.86D-03  0.00D+00 EMaxC= 1.00D+00 BMatC= 4.25D-04 BMatP= 1.39D-03
 IDIUse=1 WtCom= 1.00D+00 WtEn= 0.00D+00
 Coeff-Com: -0.135D+00 0.238D-02 0.315D+00 0.818D+00
 Coeff:     -0.135D+00 0.238D-02 0.315D+00 0.818D+00
 Gap=     0.487 Goal=   None    Shift=    0.000
 Gap=     0.493 Goal=   None    Shift=    0.000
 RMSDP=9.83D-04 MaxDP=1.14D-02 DE=-8.35D-04 OVMax= 1.51D-02

 Cycle   5  Pass 0  IDiag  1:
 E= -40.9785829266992     Delta-E=       -0.000275388498 Rises=F Damp=F
 DIIS: error= 1.29D-03 at cycle   5 NSaved=   5.
 NSaved= 5 IEnMin= 5 EnMin= -40.9785829266992     IErMin= 5 ErrMin= 1.29D-03
 ErrMax= 1.29D-03  0.00D+00 EMaxC= 1.00D+00 BMatC= 4.89D-05 BMatP= 4.25D-04
 IDIUse=1 WtCom= 1.00D+00 WtEn= 0.00D+00
 Coeff-Com:  0.603D-01-0.202D-02-0.301D+00-0.330D+00 0.157D+01
 Coeff:      0.603D-01-0.202D-02-0.301D+00-0.330D+00 0.157D+01
 Gap=     0.488 Goal=   None    Shift=    0.000
 Gap=     0.493 Goal=   None    Shift=    0.000
 RMSDP=1.10D-03 MaxDP=1.36D-02 DE=-2.75D-04 OVMax= 1.10D-02

 Cycle   6  Pass 0  IDiag  1:
 E= -40.9786566486157     Delta-E=       -0.000073721916 Rises=F Damp=F
 DIIS: error= 1.65D-04 at cycle   6 NSaved=   6.
 NSaved= 6 IEnMin= 6 EnMin= -40.9786566486157     IErMin= 6 ErrMin= 1.65D-04
 ErrMax= 1.65D-04  0.00D+00 EMaxC= 1.00D+00 BMatC= 1.58D-06 BMatP= 4.89D-05
 IDIUse=1 WtCom= 1.00D+00 WtEn= 0.00D+00
 Coeff-Com:  0.438D-02 0.272D-03-0.521D-03-0.148D-01-0.175D+00 0.119D+01
 Coeff:      0.438D-02 0.272D-03-0.521D-03-0.148D-01-0.175D+00 0.119D+01
 Gap=     0.487 Goal=   None    Shift=    0.000
 Gap=     0.494 Goal=   None    Shift=    0.000
 RMSDP=1.79D-04 MaxDP=1.95D-03 DE=-7.37D-05 OVMax= 1.82D-03

 Cycle   7  Pass 0  IDiag  1:
 E= -40.9786585582903     Delta-E=       -0.000001909675 Rises=F Damp=F
 DIIS: error= 2.36D-05 at cycle   7 NSaved=   7.
 NSaved= 7 IEnMin= 7 EnMin= -40.9786585582903     IErMin= 7 ErrMin= 2.36D-05
 ErrMax= 2.36D-05  0.00D+00 EMaxC= 1.00D+00 BMatC= 5.28D-08 BMatP= 1.58D-06
 IDIUse=1 WtCom= 1.00D+00 WtEn= 0.00D+00
 Coeff-Com: -0.247D-02-0.227D-04 0.774D-02 0.125D-01 0.329D-02-0.283D+00
 Coeff-Com:  0.126D+01
 Coeff:     -0.247D-02-0.227D-04 0.774D-02 0.125D-01 0.329D-02-0.283D+00
 Coeff:      0.126D+01
 Gap=     0.487 Goal=   None    Shift=    0.000
 Gap=     0.494 Goal=   None    Shift=    0.000
 RMSDP=2.04D-05 MaxDP=1.98D-04 DE=-1.91D-06 OVMax= 1.59D-04

 Cycle   8  Pass 0  IDiag  1:
 E= -40.9786586033595     Delta-E=       -0.000000045069 Rises=F Damp=F
 DIIS: error= 7.39D-06 at cycle   8 NSaved=   8.
 NSaved= 8 IEnMin= 8 EnMin= -40.9786586033595     IErMin= 8 ErrMin= 7.39D-06
 ErrMax= 7.39D-06  0.00D+00 EMaxC= 1.00D+00 BMatC= 4.08D-09 BMatP= 5.28D-08
 IDIUse=1 WtCom= 1.00D+00 WtEn= 0.00D+00
 Coeff-Com: -0.340D-03-0.135D-04 0.377D-03 0.155D-02 0.979D-02-0.728D-01
 Coeff-Com: -0.500D-01 0.111D+01
 Coeff:     -0.340D-03-0.135D-04 0.377D-03 0.155D-02 0.979D-02-0.728D-01
 Coeff:     -0.500D-01 0.111D+01
 Gap=     0.487 Goal=   None    Shift=    0.000
 Gap=     0.494 Goal=   None    Shift=    0.000
 RMSDP=5.54D-06 MaxDP=5.69D-05 DE=-4.51D-08 OVMax= 3.69D-05

 Initial convergence to 1.0D-05 achieved.  Increase integral accuracy.
 Cycle   9  Pass 1  IDiag  1:
 E= -40.9786717820811     Delta-E=       -0.000013178722 Rises=F Damp=F
 DIIS: error= 1.95D-05 at cycle   1 NSaved=   1.
 NSaved= 1 IEnMin= 1 EnMin= -40.9786717820811     IErMin= 1 ErrMin= 1.95D-05
 ErrMax= 1.95D-05  0.00D+00 EMaxC= 1.00D+00 BMatC= 3.24D-08 BMatP= 3.24D-08
 IDIUse=1 WtCom= 1.00D+00 WtEn= 0.00D+00
 Coeff-Com:  0.100D+01
 Coeff:      0.100D+01
 Gap=     0.487 Goal=   None    Shift=    0.000
 Gap=     0.494 Goal=   None    Shift=    0.000
 RMSDP=5.54D-06 MaxDP=5.69D-05 DE=-1.32D-05 OVMax= 3.31D-05

 Cycle  10  Pass 1  IDiag  1:
 E= -40.9786717916757     Delta-E=       -0.000000009595 Rises=F Damp=F
 DIIS: error= 4.21D-06 at cycle   2 NSaved=   2.
 NSaved= 2 IEnMin= 2 EnMin= -40.9786717916757     IErMin= 2 ErrMin= 4.21D-06
 ErrMax= 4.21D-06  0.00D+00 EMaxC= 1.00D+00 BMatC= 1.50D-09 BMatP= 3.24D-08
 IDIUse=1 WtCom= 1.00D+00 WtEn= 0.00D+00
 Coeff-Com: -0.136D+00 0.114D+01
 Coeff:     -0.136D+00 0.114D+01
 Gap=     0.487 Goal=   None    Shift=    0.000
 Gap=     0.494 Goal=   None    Shift=    0.000
 RMSDP=1.12D-06 MaxDP=8.40D-06 DE=-9.59D-09 OVMax= 1.37D-05

 Cycle  11  Pass 1  IDiag  1:
 E= -40.9786717924954     Delta-E=       -0.000000000820 Rises=F Damp=F
 DIIS: error= 1.27D-06 at cycle   3 NSaved=   3.
 NSaved= 3 IEnMin= 3 EnMin= -40.9786717924954     IErMin= 3 ErrMin= 1.27D-06
 ErrMax= 1.27D-06  0.00D+00 EMaxC= 1.00D+00 BMatC= 1.42D-10 BMatP= 1.50D-09
 IDIUse=1 WtCom= 1.00D+00 WtEn= 0.00D+00
 Coeff-Com: -0.209D-01-0.107D+00 0.113D+01
 Coeff:     -0.209D-01-0.107D+00 0.113D+01
 Gap=     0.487 Goal=   None    Shift=    0.000
 Gap=     0.494 Goal=   None    Shift=    0.000
 RMSDP=5.58D-07 MaxDP=4.48D-06 DE=-8.20D-10 OVMax= 7.35D-06

 Cycle  12  Pass 1  IDiag  1:
 E= -40.9786717926070     Delta-E=       -0.000000000112 Rises=F Damp=F
 DIIS: error= 5.48D-07 at cycle   4 NSaved=   4.
 NSaved= 4 IEnMin= 4 EnMin= -40.9786717926070     IErMin= 4 ErrMin= 5.48D-07
 ErrMax= 5.48D-07  0.00D+00 EMaxC= 1.00D+00 BMatC= 1.99D-11 BMatP= 1.42D-10
 IDIUse=1 WtCom= 1.00D+00 WtEn= 0.00D+00
 Coeff-Com:  0.144D-01-0.114D+00-0.657D-01 0.116D+01
 Coeff:      0.144D-01-0.114D+00-0.657D-01 0.116D+01
 Gap=     0.487 Goal=   None    Shift=    0.000
 Gap=     0.494 Goal=   None    Shift=    0.000
 RMSDP=3.78D-07 MaxDP=3.86D-06 DE=-1.12D-10 OVMax= 3.28D-06

 Cycle  13  Pass 1  IDiag  1:
 E= -40.9786717926259     Delta-E=       -0.000000000019 Rises=F Damp=F
 DIIS: error= 3.07D-07 at cycle   5 NSaved=   5.
 NSaved= 5 IEnMin= 5 EnMin= -40.9786717926259     IErMin= 5 ErrMin= 3.07D-07
 ErrMax= 3.07D-07  0.00D+00 EMaxC= 1.00D+00 BMatC= 3.30D-12 BMatP= 1.99D-11
 IDIUse=1 WtCom= 1.00D+00 WtEn= 0.00D+00
 Coeff-Com:  0.675D-02-0.271D-01-0.109D+00 0.321D+00 0.809D+00
 Coeff:      0.675D-02-0.271D-01-0.109D+00 0.321D+00 0.809D+00
 Gap=     0.487 Goal=   None    Shift=    0.000
 Gap=     0.494 Goal=   None    Shift=    0.000
 RMSDP=1.03D-07 MaxDP=1.05D-06 DE=-1.89D-11 OVMax= 1.36D-06

 Cycle  14  Pass 1  IDiag  1:
 E= -40.9786717926281     Delta-E=       -0.000000000002 Rises=F Damp=F
 DIIS: error= 1.16D-07 at cycle   6 NSaved=   6.
 NSaved= 6 IEnMin= 6 EnMin= -40.9786717926281     IErMin= 6 ErrMin= 1.16D-07
 ErrMax= 1.16D-07  0.00D+00 EMaxC= 1.00D+00 BMatC= 4.90D-13 BMatP= 3.30D-12
 IDIUse=1 WtCom= 1.00D+00 WtEn= 0.00D+00
 Coeff-Com: -0.313D-02 0.225D-01 0.194D-01-0.270D+00-0.913D-02 0.124D+01
 Coeff:     -0.313D-02 0.225D-01 0.194D-01-0.270D+00-0.913D-02 0.124D+01
 Gap=     0.487 Goal=   None    Shift=    0.000
 Gap=     0.494 Goal=   None    Shift=    0.000
 RMSDP=9.26D-08 MaxDP=1.15D-06 DE=-2.15D-12 OVMax= 7.80D-07

 Cycle  15  Pass 1  IDiag  1:
 E= -40.9786717926287     Delta-E=       -0.000000000001 Rises=F Damp=F
 DIIS: error= 2.44D-08 at cycle   7 NSaved=   7.
 NSaved= 7 IEnMin= 7 EnMin= -40.9786717926287     IErMin= 7 ErrMin= 2.44D-08
 ErrMax= 2.44D-08  0.00D+00 EMaxC= 1.00D+00 BMatC= 1.81D-14 BMatP= 4.90D-13
 IDIUse=1 WtCom= 1.00D+00 WtEn= 0.00D+00
 Coeff-Com:  0.349D-03-0.360D-02 0.103D-02 0.526D-01-0.562D-01-0.344D+00
 Coeff-Com:  0.135D+01
 Coeff:      0.349D-03-0.360D-02 0.103D-02 0.526D-01-0.562D-01-0.344D+00
 Coeff:      0.135D+01
 Gap=     0.487 Goal=   None    Shift=    0.000
 Gap=     0.494 Goal=   None    Shift=    0.000
 RMSDP=1.82D-08 MaxDP=2.02D-07 DE=-5.68D-13 OVMax= 1.93D-07

 Cycle  16  Pass 1  IDiag  1:
 E= -40.9786717926286     Delta-E=        0.000000000000 Rises=F Damp=F
 DIIS: error= 2.70D-09 at cycle   8 NSaved=   8.
 NSaved= 8 IEnMin= 7 EnMin= -40.9786717926287     IErMin= 8 ErrMin= 2.70D-09
 ErrMax= 2.70D-09  0.00D+00 EMaxC= 1.00D+00 BMatC= 4.76D-16 BMatP= 1.81D-14
 IDIUse=1 WtCom= 1.00D+00 WtEn= 0.00D+00
 Coeff-Com:  0.370D-04 0.309D-04-0.893D-03-0.304D-02 0.166D-01 0.330D-01
 Coeff-Com: -0.313D+00 0.127D+01
 Coeff:      0.370D-04 0.309D-04-0.893D-03-0.304D-02 0.166D-01 0.330D-01
 Coeff:     -0.313D+00 0.127D+01
 Gap=     0.487 Goal=   None    Shift=    0.000
 Gap=     0.494 Goal=   None    Shift=    0.000
 RMSDP=2.41D-09 MaxDP=1.90D-08 DE= 2.84D-14 OVMax= 2.08D-08

 SCF Done:  E(UwB97XD) =  -40.9786717926     A.U. after   16 cycles
            NFock= 16  Conv=0.24D-08     -V/T= 2.0092
 <Sx>= 0.0000 <Sy>= 0.0000 <Sz>= 0.5000 <S**2>= 0.7577 S= 0.5039
 <L.S>= 0.000000000000E+00
 KE= 4.060547134945D+01 PE=-1.246739613236D+02 EE= 2.770988410285D+01
 Annihilation of the first spin contaminant:
 S**2 before annihilation     0.7577,   after     0.7500
 Leave Link  502 at Thu Aug  5 16:41:07 2021, MaxMem=  2684354560 cpu:        10.5
 (Enter /soft/gaussian/09-e.01/g09/l508.exe)
 QCSCF skips out because SCF is already converged.
 Leave Link  508 at Thu Aug  5 16:41:07 2021, MaxMem=  2684354560 cpu:         0.0
 (Enter /soft/gaussian/09-e.01/g09/l701.exe)
 Compute integral first derivatives.
 ... and contract with generalized density number  0.
 R6Disp: Adding Grimme-D2 dispersion energy 1st derivatives to the gradient.
 Leave Link  701 at Thu Aug  5 16:41:08 2021, MaxMem=  2684354560 cpu:         1.3
 (Enter /soft/gaussian/09-e.01/g09/l702.exe)
 L702 exits ... SP integral derivatives will be done elsewhere.
 Leave Link  702 at Thu Aug  5 16:41:08 2021, MaxMem=  2684354560 cpu:         0.1
 (Enter /soft/gaussian/09-e.01/g09/l703.exe)
 Compute integral first derivatives, UseDBF=F ICtDFT=           0.
 Integral derivatives from FoFJK, PRISM(SPDF).
 Calling FoFJK, ICntrl=      2127 FMM=F ISym2X=0 I1Cent= 0 IOpClX= 1 NMat=1 NMatS=1 NMatT=0.
 FoFJK:  IHMeth= 1 ICntrl=    2127 DoSepK=T KAlg= 0 I1Cent=   0 FoldK=F
 IRaf=         1 NMat=   1 IRICut=       1 DoRegI=T DoRafI=F ISym2E= 0.
 FoFCou: FMM=F IPFlag=           0 FMFlag=      100000 FMFlg1=         800
         NFxFlg=           0 DoJE=F BraDBF=F KetDBF=F FulRan=T
         wScrn=  0.000000 ICntrl=    2527 IOpCl=  0 I1Cent=           0 NGrid=           0
         NMat0=    1 NMatS0=      1 NMatT0=    0 NMatD0=    1 NMtDS0=    0 NMtDT0=    0
 Symmetry not used in FoFCou.
 Leave Link  703 at Thu Aug  5 16:41:08 2021, MaxMem=  2684354560 cpu:         3.4
 (Enter /soft/gaussian/09-e.01/g09/l716.exe)
 Dipole        =-2.96030024D-01-1.79875451D-04-1.35384509D-04
 ***** Axes restored to original set *****
 -------------------------------------------------------------------
 Center     Atomic                   Forces (Hartrees/Bohr)
 Number     Number              X              Y              Z
 -------------------------------------------------------------------
      1        6           0.002789363    0.006395688    0.001503889
      2        1          -0.000012994    0.000036066   -0.000081671
      3        1           0.000065329   -0.000186466    0.000145149
      4        1          -0.000223391   -0.000067773    0.000152169
      5        1           0.002329157    0.005570448    0.001463036
      6        1          -0.004947464   -0.011747963   -0.003182571
 -------------------------------------------------------------------
 Cartesian Forces:  Max     0.011747963 RMS     0.003817424
 -----------------------------------------------------------------------------------------------
                       Internal Coordinate Forces (Hartree/Bohr or radian)
  Cent   Atom   N1       Length/X         N2         Alpha/Y        N3         Beta/Z          J
 -----------------------------------------------------------------------------------------------
      1  C 
      2  H        1  -0.000082(     1)
      3  H        1  -0.000000(     2)      2  -0.000328(     7)
      4  H        1   0.000035(     3)      2  -0.000376(     8)      3  -0.000388(    12)     0
      5  H        1   0.006926(     4)      2   0.000091(     9)      3   0.000039(    13)     0
         X        5   0.000000(     5)      1  -0.000017(    10)      2   0.000000(    14)     0
      6  H        5   0.013139(     6)      6  -0.000017(    11)      1   0.000001(    15)     0
 -----------------------------------------------------------------------------------------------
 Internal  Forces:  Max     0.013138519 RMS     0.003838496
 Leave Link  716 at Thu Aug  5 16:41:08 2021, MaxMem=  2684354560 cpu:         0.2
 (Enter /soft/gaussian/09-e.01/g09/l103.exe)

 GradGradGradGradGradGradGradGradGradGradGradGradGradGradGradGradGradGrad
 Berny optimization.
 Search for a saddle point.
 Step number   2 out of a maximum of   60
 All quantities printed in internal units (Hartrees-Bohrs-Radians)
 Swapping is turned off.
 Update second derivatives using D2CorN and points    1    2
 The second derivative matrix:
                          R1        R2        R3        R4        R6
           R1           0.36028
           R2           0.00049   0.36034
           R3           0.00049   0.00050   0.36051
           R4           0.00177   0.00167   0.00169   0.08164
           R6          -0.00003   0.00006   0.00006   0.09493   0.08058
           A2           0.01645   0.00246  -0.01014  -0.01107   0.00244
           A3           0.01651  -0.01016   0.00269  -0.01116   0.00242
           A4           0.00848  -0.00425  -0.00425   0.00153   0.00101
           A6          -0.00134   0.00067   0.00067   0.00004  -0.00001
           D3          -0.00031  -0.01203  -0.00493   0.02458  -0.00498
           D4          -0.00002   0.00706  -0.00710   0.00215   0.00133
           D6          -0.00000  -0.00115   0.00116   0.00001   0.00001
           R5          -0.00000  -0.00000  -0.00000   0.00000  -0.00000
           A5          -0.00134   0.00067   0.00067  -0.00003  -0.00005
           D5          -0.00000   0.00000  -0.00000   0.00000  -0.00000
                          A2        A3        A4        A6        D3
           A2           0.18839
           A3           0.04617   0.18855
           A4           0.01549   0.01550   0.13936
           A6          -0.00128  -0.00127  -0.00384   0.02560
           D3           0.05536   0.01864  -0.04174   0.00057   0.13197
           D4          -0.03676   0.03671  -0.00001   0.00002  -0.06479
           D6           0.00039  -0.00037   0.00002   0.00001   0.00180
           R5           0.00000   0.00000   0.00000   0.00000  -0.00000
           A5          -0.00128  -0.00127  -0.00384   0.02560   0.00058
           D5          -0.00000   0.00000  -0.00000   0.00001  -0.00000
                          D4        D6        R5        A5        D5
           D4           0.12880
           D6          -0.00365   0.02562
           R5           0.00000   0.00000   0.00000
           A5           0.00002   0.00001   0.00000   0.02560
           D5           0.00001  -0.00000   0.00000   0.00001   0.00000
 ITU=  0  0
     Eigenvalues ---   -0.02065   0.02546   0.02546   0.04596   0.09431
     Eigenvalues ---    0.15323   0.17660   0.21843   0.26369   0.36101
     Eigenvalues ---    0.36200   0.366161000.000001000.000001000.00000
 Eigenvectors required to have negative eigenvalues:
                          R4        R6        D3        D4        A4
   1                    0.69090  -0.66105  -0.23773  -0.10564  -0.07912
                          A2        A3        R1        R2        R3
   1                    0.07880   0.07305  -0.00825  -0.00790  -0.00728
 RFO step:  Lambda0=7.021624614D-04 Lambda=-1.27424687D-03.
 Linear search not attempted -- option 19 set.
 Variable       Old X    -DE/DX   Delta X   Delta X   Delta X     New X
                                 (Linear)    (Quad)   (Total)
    R1        2.05755  -0.00008   0.00000  -0.00245  -0.00245   2.05510
    R2        2.05752  -0.00000   0.00000  -0.00248  -0.00248   2.05504
    R3        2.05739   0.00003   0.00000  -0.00253  -0.00253   2.05486
    R4        2.57453   0.00693   0.00000   0.17367   0.17367   2.74820
    R6        1.64468   0.01314   0.00000  -0.04887  -0.04887   1.59581
    A2        1.99598  -0.00033   0.00000   0.02128   0.02128   2.01726
    A3        1.99654  -0.00038   0.00000   0.02230   0.02230   2.01884
    A4        1.81562   0.00009   0.00000  -0.02953  -0.02953   1.78610
    A6        1.57144  -0.00002   0.00000  -0.00133  -0.00133   1.57010
[...]
      X                                                        X           X             X                                           
      X                                                        X           X             X                                           
      X                                                        X           X             X                                           
      X                                                        X           X             X                                           
      X                                                        X           X                                                         
      X                                                        X                                                                     
      X                                                        X                                                                     
      X                                                        X                                                                     
      X                                                        X                                                                     
      X                                                        X                                                                     
      X                                                        X                                                                     
      X                                                        X                                                                     
      X                                                        X                                                                     
      X                                                        X                                                                     
      X                                                        X                                                                     
      X                                                        X                                                                     
                                                               X                                                                     
 
 ***** Axes restored to original set *****
 -------------------------------------------------------------------
 Center     Atomic                   Forces (Hartrees/Bohr)
 Number     Number              X              Y              Z
 -------------------------------------------------------------------
      1        6          -0.000008841   -0.000028797    0.000008384
      2        1           0.000005506    0.000015463    0.000000098
      3        1           0.000006095    0.000018571   -0.000001819
      4        1           0.000009137    0.000009559    0.000001424
      5        1          -0.000017889   -0.000029309   -0.000011911
      6        1           0.000005992    0.000014512    0.000003824
 -------------------------------------------------------------------
 Cartesian Forces:  Max     0.000029309 RMS     0.000013726
 -----------------------------------------------------------------------------------------------
                       Internal Coordinate Forces (Hartree/Bohr or radian)
  Cent   Atom   N1       Length/X         N2         Alpha/Y        N3         Beta/Z          J
 -----------------------------------------------------------------------------------------------
      1  C 
      2  H        1   0.000000(     1)
      3  H        1   0.000006(     2)      2  -0.000002(     7)
      4  H        1  -0.000000(     3)      2  -0.000003(     8)      3   0.000025(    12)     0
      5  H        1   0.000020(     4)      2   0.000009(     9)      3   0.000014(    13)     0
         X        5  -0.000000(     5)      1  -0.000000(    10)      2  -0.000000(    14)     0
      6  H        5  -0.000016(     6)      6  -0.000000(    11)      1  -0.000000(    15)     0
 -----------------------------------------------------------------------------------------------
 Internal  Forces:  Max     0.000024731 RMS     0.000010278
 Force constants in Cartesian coordinates: 
                1             2             3             4             5 
      1  0.529649D+00
      2 -0.159869D+00  0.205320D+00
      3 -0.419605D-01 -0.102646D+00  0.567945D+00
      4 -0.486474D-01  0.102815D-01 -0.176533D-02  0.438368D-01
      5  0.102681D-01 -0.278354D-01 -0.411299D-02 -0.702820D-02  0.296077D-01
      6  0.288283D-02  0.723488D-02 -0.347842D+00 -0.143901D-02 -0.370869D-02
      7 -0.295704D+00  0.107933D-01  0.115917D+00  0.438673D-02  0.244677D-03
      8  0.473970D-03 -0.279930D-01  0.110126D-01  0.116469D-02  0.121800D-02
      9  0.111240D+00  0.630570D-02 -0.100920D+00  0.288424D-01  0.116718D-02
     10 -0.169456D+00  0.128739D+00 -0.748342D-01  0.212457D-02 -0.112279D-02
     11  0.139046D+00 -0.154136D+00  0.892713D-01 -0.205443D-02  0.350259D-02
     12 -0.748144D-01  0.826205D-01 -0.100924D+00 -0.197259D-01  0.210815D-01
     13 -0.706911D-02  0.458940D-01  0.120711D-01 -0.199394D-02 -0.366007D-02
     14  0.459148D-01  0.861892D-01  0.294828D-01 -0.366430D-02 -0.942402D-02
     15  0.120789D-01  0.294905D-01 -0.181164D-01 -0.643371D-02 -0.157000D-01
     16 -0.877287D-02 -0.358388D-01 -0.942848D-02  0.293175D-03  0.129829D-02
     17 -0.358335D-01 -0.815454D-01 -0.230081D-01  0.130075D-02  0.293110D-02
     18 -0.942627D-02 -0.230060D-01 -0.142425D-03  0.521559D-03  0.127301D-02
                6             7             8             9            10 
      6  0.365115D+00
      7 -0.312979D-02  0.308479D+00
      8 -0.261024D-03 -0.623833D-02  0.297345D-01
      9 -0.735586D-02 -0.122527D+00 -0.481679D-02  0.100568D+00
     10  0.204326D-02 -0.123917D-01  0.186670D-01 -0.130647D-01  0.177410D+00
     11 -0.238951D-02 -0.303110D-02  0.349749D-02 -0.880838D-03 -0.139387D+00
     12 -0.735874D-02  0.868629D-02 -0.978834D-02  0.718132D-02  0.838973D-01
     13 -0.329408D-03 -0.561161D-02 -0.157645D-01 -0.476186D-02  0.153243D-02
     14 -0.808278D-03 -0.224430D-02 -0.936704D-02 -0.297822D-02 -0.853385D-02
     15 -0.328814D-02  0.133265D-02  0.321108D-02  0.347579D-03  0.130282D-02
     16 -0.278719D-04  0.841461D-03  0.169709D-02  0.271225D-03  0.781035D-03
     17 -0.673785D-04  0.475771D-03  0.291009D-02  0.120297D-02  0.163741D-02
     18  0.730124D-03 -0.279909D-03  0.642487D-03  0.178651D-03  0.655496D-03
               11            12            13            14            15 
     11  0.160713D+00
     12 -0.894869D-01  0.100574D+00
     13  0.501099D-02  0.130335D-02  0.286209D-01
     14 -0.165644D-01 -0.547545D-02 -0.310636D-01 -0.345198D-01
     15  0.321818D-02  0.346352D-03 -0.817303D-02 -0.199551D-01  0.360889D-01
     16  0.415718D-03  0.653420D-03 -0.154786D-01 -0.408749D-03 -0.107612D-03
     17  0.298718D-02  0.104865D-02 -0.416903D-03 -0.163139D-01 -0.264641D-03
     18  0.267762D-03  0.180817D-03 -0.110199D-03 -0.265733D-03 -0.153782D-01
               16            17            18 
     16  0.223358D-01
     17  0.328365D-01  0.890310D-01
     18  0.863932D-02  0.210885D-01  0.144311D-01
 Force constants in internal coordinates: 
                1             2             3             4             5 
      1  0.365115D+00
      2  0.213160D-03  0.365201D+00
      3  0.212300D-03  0.210876D-03  0.365298D+00
      4  0.152406D-02  0.151741D-02  0.152093D-02  0.224363D-01
      5  0.000000D+00  0.000000D+00  0.000000D+00  0.000000D+00  0.000000D+00
      6 -0.101873D-03 -0.101693D-03 -0.101870D-03  0.914792D-01  0.000000D+00
      7  0.164364D-01  0.307998D-02 -0.113110D-01 -0.849710D-02  0.000000D+00
      8  0.164442D-01 -0.113095D-01  0.304510D-02 -0.852053D-02  0.000000D+00
      9  0.472003D-02 -0.235681D-02 -0.235525D-02 -0.224879D-05  0.000000D+00
     10 -0.123827D-02  0.618961D-03  0.619131D-03 -0.243565D-05  0.000000D+00
     11 -0.123827D-02  0.618961D-03  0.619131D-03 -0.243565D-05  0.000000D+00
     12 -0.501209D-03 -0.108451D-01 -0.693206D-02  0.189145D-01  0.000000D+00
     13 -0.312762D-05  0.396478D-02 -0.397207D-02  0.344841D-04  0.000000D+00
     14  0.000000D+00  0.000000D+00  0.000000D+00  0.000000D+00  0.000000D+00
     15  0.000000D+00 -0.107250D-02  0.107269D-02  0.423919D-05  0.000000D+00
                6             7             8             9            10 
      6  0.108033D+00
      7  0.286343D-02  0.185504D+00
      8  0.286946D-02  0.578302D-01  0.185436D+00
      9 -0.150979D-05  0.953942D-02  0.956309D-02  0.104185D+00
     10  0.000000D+00 -0.102191D-02 -0.101598D-02 -0.308213D-02  0.257661D-01
     11  0.000000D+00 -0.102191D-02 -0.101598D-02 -0.308213D-02  0.257661D-01
     12 -0.638061D-02  0.516477D-01  0.270701D-01 -0.311846D-01  0.512334D-03
     13 -0.188927D-04 -0.246579D-01  0.247122D-01 -0.162583D-04 -0.373010D-05
     14  0.000000D+00  0.000000D+00  0.000000D+00  0.000000D+00  0.000000D+00
     15  0.000000D+00  0.218432D-03 -0.211081D-03 -0.375620D-05 -0.152524D-05
               11            12            13            14            15 
     11  0.257661D-01
     12  0.512334D-03  0.103441D+00
     13 -0.373010D-05 -0.492322D-01  0.983581D-01
     14  0.000000D+00  0.000000D+00  0.000000D+00  0.000000D+00
     15 -0.152525D-05  0.146972D-02 -0.299489D-02  0.000000D+00  0.257673D-01
 Leave Link  716 at Thu Aug  5 16:41:23 2021, MaxMem=  2684354560 cpu:         0.2
 (Enter /soft/gaussian/09-e.01/g09/l103.exe)

 GradGradGradGradGradGradGradGradGradGradGradGradGradGradGradGradGradGrad
 Berny optimization.
 Search for a saddle point.
 Step number   1 out of a maximum of    2
 All quantities printed in internal units (Hartrees-Bohrs-Radians)
 Swapping is turned off.
 Second derivative matrix not updated -- analytic derivatives used.
 The second derivative matrix:
                          R1        R2        R3        R4        R6
           R1           0.36511
           R2           0.00021   0.36520
           R3           0.00021   0.00021   0.36530
           R4           0.00152   0.00152   0.00152   0.02244
           R6          -0.00010  -0.00010  -0.00010   0.09148   0.10803
           A2           0.01644   0.00308  -0.01131  -0.00850   0.00286
           A3           0.01644  -0.01131   0.00305  -0.00852   0.00287
           A4           0.00472  -0.00236  -0.00236  -0.00000  -0.00000
           A6          -0.00124   0.00062   0.00062  -0.00000   0.00000
           D3          -0.00050  -0.01085  -0.00693   0.01891  -0.00638
           D4          -0.00000   0.00396  -0.00397   0.00003  -0.00002
           D6           0.00000  -0.00107   0.00107   0.00000  -0.00000
           R5          -0.00000  -0.00000  -0.00000  -0.00000  -0.00000
           A5          -0.00124   0.00062   0.00062  -0.00000   0.00000
           D5           0.00000  -0.00000   0.00000   0.00000  -0.00000
                          A2        A3        A4        A6        D3
           A2           0.18550
           A3           0.05783   0.18544
           A4           0.00954   0.00956   0.10418
           A6          -0.00102  -0.00102  -0.00308   0.02577
           D3           0.05165   0.02707  -0.03118   0.00051   0.10344
           D4          -0.02466   0.02471  -0.00002  -0.00000  -0.04923
           D6           0.00022  -0.00021  -0.00000  -0.00000   0.00147
           R5          -0.00000  -0.00000  -0.00000  -0.00000  -0.00000
           A5          -0.00102  -0.00102  -0.00308   0.02577   0.00051
           D5           0.00000   0.00000   0.00000  -0.00000   0.00000
                          D4        D6        R5        A5        D5
           D4           0.09836
           D6          -0.00299   0.02577
           R5           0.00000   0.00000  -0.00000
           A5          -0.00000  -0.00000  -0.00000   0.02577
           D5          -0.00000   0.00000   0.00000  -0.00000   0.00000
 ITU=  0
     Eigenvalues ---   -0.04084   0.02560   0.02564   0.03642   0.08489
     Eigenvalues ---    0.12048   0.16531   0.17435   0.25963   0.36596
     Eigenvalues ---    0.36619   0.370911000.000001000.000001000.00000
 Eigenvectors required to have negative eigenvalues:
                          R4        R6        D3        D4        A2
   1                    0.82360  -0.51696  -0.19949  -0.06927   0.06383
                          A3        A4        R1        R2        R3
   1                    0.05512  -0.05068  -0.00769  -0.00709  -0.00622
 Angle between quadratic step and forces=  53.11 degrees.
 Linear search not attempted -- option 19 set.
 Variable       Old X    -DE/DX   Delta X   Delta X   Delta X     New X
                                 (Linear)    (Quad)   (Total)
    R1        2.05683   0.00000   0.00000   0.00001   0.00001   2.05684
    R2        2.05682   0.00001   0.00000   0.00003   0.00003   2.05685
    R3        2.05683  -0.00000   0.00000   0.00002   0.00002   2.05685
    R4        2.63448   0.00002   0.00000  -0.00021  -0.00021   2.63427
    R6        1.70408  -0.00002   0.00000   0.00008   0.00008   1.70416
    A2        1.99974  -0.00000   0.00000  -0.00012  -0.00012   1.99963
    A3        1.99980  -0.00000   0.00000  -0.00019  -0.00019   1.99961
    A4        1.80964   0.00001   0.00000   0.00034   0.00034   1.80998
    A6        1.57078  -0.00000   0.00000   0.00001   0.00001   1.57079
    D3        3.91961   0.00002   0.00000   0.00075   0.00075   3.92036
    D4        1.95965   0.00001   0.00000   0.00053   0.00053   1.96019
    D6        3.14158  -0.00000   0.00000   0.00002   0.00002   3.14160
    R5        1.88973  -0.00000   0.00000   0.00000   0.00000   1.88973
    A5        1.57080  -0.00000   0.00000   0.00000   0.00000   1.57080
    D5        0.00000  -0.00000   0.00000   0.00000   0.00000   0.00000
         Item               Value     Threshold  Converged?
 Maximum Force            0.000025     0.000450     YES
 RMS     Force            0.000011     0.000300     YES
 Maximum Displacement     0.000753     0.001800     YES
 RMS     Displacement     0.000267     0.001200     YES
 Predicted change in Energy=-1.237042D-08
 Optimization completed.
    -- Stationary point found.
                       ----------------------------
                       !   Optimized Parameters   !
                       ! (Angstroms and Degrees)  !
 ----------------------                            ----------------------
 !      Name          Value   Derivative information (Atomic Units)     !
 ------------------------------------------------------------------------
 !       R1          1.0884   -DE/DX =    0.0                           !
 !       R2          1.0884   -DE/DX =    0.0                           !
 !       R3          1.0884   -DE/DX =    0.0                           !
 !       R4          1.3941   -DE/DX =    0.0                           !
 !       R6          0.9018   -DE/DX =    0.0                           !
 !       A2        114.5769   -DE/DX =    0.0                           !
 !       A3        114.5801   -DE/DX =    0.0                           !
 !       A4        103.6845   -DE/DX =    0.0                           !
 !       A6         89.9991   -DE/DX =    0.0                           !
 !       D3        224.5772   -DE/DX =    0.0                           !
 !       D4        112.2798   -DE/DX =    0.0                           !
 !       D6        179.9992   -DE/DX =    0.0                           !
 !       R5          1.0      -DE/DX =    0.0                           !
 !       A5         90.0      -DE/DX =    0.0                           !
 !       D5          0.0      -DE/DX =    0.0                           !
 ------------------------------------------------------------------------
 GradGradGradGradGradGradGradGradGradGradGradGradGradGradGradGradGradGrad

 Leave Link  103 at Thu Aug  5 16:41:23 2021, MaxMem=  2684354560 cpu:         0.1
 (Enter /soft/gaussian/09-e.01/g09/l9999.exe)
 1\1\GINC-B459\Freq\UwB97XD\6-31G(d)\C1H5(2)\KMOORE\05-Aug-2021\1\\#P G
 eom=AllCheck Guess=TCheck SCRF=Check GenChk UwB97XD/6-31G(d) Freq\\com
 ment:\\0,2\C\H,1,R1\H,1,R2,2,A2\H,1,R3,2,A3,3,D3,0\H,1,R4,2,A4,3,D4,0\
 X,5,R5,1,A5,2,D5,0\H,5,R6,6,A6,1,D6,0\\R1=1.08842869\R2=1.08842263\R3=
 1.08842768\R4=1.39410601\R6=0.90176289\A2=114.57689949\A3=114.5801238\
 A4=103.68452188\A6=89.99914625\D3=224.57715402\D4=112.27980727\D6=179.
 99920431\R5=1.\A5=90.\D5=0.\\Version=ES64L-G09RevE.01\State=2-A\HF=-40
 .979254\S2=0.758651\S2-1=0.\S2A=0.750026\RMSD=1.482e-10\RMSF=1.373e-05
 \ZeroPoint=0.0433677\Thermal=0.0466217\Dipole=0.1140745,0.2783491,0.07
 32719\DipoleDeriv=0.0348193,-0.0135467,-0.00347,-0.013478,0.0070342,-0
 .0087361,-0.0034217,-0.0087231,0.0379591,0.0665429,-0.008966,-0.010959
 2,-0.0089056,0.0483798,-0.0266415,0.0026055,0.0063775,-0.0871489,-0.06
 34795,0.0023034,0.0623259,-0.0277088,0.0494343,0.0031778,0.0488719,-0.
 0106077,0.0433522,0.0045486,0.0411458,-0.0423807,0.0711881,-0.0196332,
 0.0457548,-0.0424886,0.0265435,0.0432224,0.0053616,0.0241867,0.0063614
 ,0.0240384,0.0543862,0.0154731,0.0063177,0.0154516,-0.0004143,-0.04779
 28,-0.0451232,-0.0118774,-0.0451341,-0.1396012,-0.0290281,-0.0118849,-
 0.0290417,-0.0369706\Polar=14.5527725,5.4225273,25.568702,1.4278083,3.
 4836978,13.2481907\PG=C01 [X(C1H5)]\NImag=1\\0.52964948,-0.15986893,0.
 20532048,-0.04196051,-0.10264555,0.56794471,-0.04864736,0.01028150,-0.
 00176533,0.04383682,0.01026810,-0.02783537,-0.00411299,-0.00702820,0.0
 2960771,0.00288283,0.00723488,-0.34784205,-0.00143901,-0.00370869,0.36
 511466,-0.29570419,0.01079327,0.11591738,0.00438673,0.00024468,-0.0031
 2979,0.30847935,0.00047397,-0.02799302,0.01101259,0.00116469,0.0012180
 0,-0.00026102,-0.00623833,0.02973448,0.11123950,0.00630570,-0.10091959
 ,0.02884242,0.00116718,-0.00735586,-0.12252663,-0.00481679,0.10056790,
 -0.16945595,0.12873894,-0.07483420,0.00212457,-0.00112279,0.00204326,-
 0.01239173,0.01866704,-0.01306466,0.17740965,0.13904556,-0.15413591,0.
 08927128,-0.00205443,0.00350259,-0.00238951,-0.00303110,0.00349749,-0.
 00088084,-0.13938674,0.16071310,-0.07481442,0.08262051,-0.10092422,-0.
 01972593,0.02108149,-0.00735874,0.00868629,-0.00978834,0.00718132,0.08
 389729,-0.08948686,0.10057446,-0.00706911,0.04589404,0.01207115,-0.001
 99394,-0.00366007,-0.00032941,-0.00561161,-0.01576445,-0.00476186,0.00
 153243,0.00501099,0.00130335,0.02862086,0.04591481,0.08618921,0.029482
 79,-0.00366430,-0.00942402,-0.00080828,-0.00224430,-0.00936704,-0.0029
 7822,-0.00853385,-0.01656444,-0.00547545,-0.03106361,-0.03451976,0.012
 07887,0.02949050,-0.01811642,-0.00643371,-0.01570001,-0.00328814,0.001
 33265,0.00321108,0.00034758,0.00130282,0.00321818,0.00034635,-0.008173
 03,-0.01995510,0.03608886,-0.00877287,-0.03583882,-0.00942848,0.000293
 18,0.00129829,-0.00002787,0.00084146,0.00169709,0.00027122,0.00078104,
 0.00041572,0.00065342,-0.01547862,-0.00040875,-0.00010761,0.02233581,-
 0.03583350,-0.08154538,-0.02300812,0.00130075,0.00293110,-0.00006738,0
 .00047577,0.00291009,0.00120297,0.00163741,0.00298718,0.00104865,-0.00
 041690,-0.01631395,-0.00026464,0.03283648,0.08903096,-0.00942627,-0.02
 300604,-0.00014242,0.00052156,0.00127301,0.00073012,-0.00027991,0.0006
 4249,0.00017865,0.00065550,0.00026776,0.00018082,-0.00011020,-0.000265
 73,-0.01537823,0.00863932,0.02108851,0.01443107\\0.00000884,0.00002880
 ,-0.00000838,-0.00000551,-0.00001546,-0.00000010,-0.00000610,-0.000018
 57,0.00000182,-0.00000914,-0.00000956,-0.00000142,0.00001789,0.0000293
 1,0.00001191,-0.00000599,-0.00001451,-0.00000382\\\@


 SUCCESS IS COUNTED SWEETEST
 BY THOSE WHO NE'ER SUCCEED.
 TO COMPREHEND NECTAR
 REQUIRES SOREST NEED.
           EMILY DICKINSON
 Job cpu time:       0 days  0 hours  0 minutes 41.6 seconds.
 File lengths (MBytes):  RWF=      5 Int=      0 D2E=      0 Chk=      1 Scr=      1
 Normal termination of Gaussian 09 at Thu Aug  5 16:41:23 2021.
