 Entering Gaussian System, Link 0=g09
 Initial command:
 /soft/gaussian/09-e.01/g09/l1.exe "/scratch/kmoore/Gau-4078.inp" -scrdir="/scratch/kmoore"
 Entering Link 1 = /soft/gaussian/09-e.01/g09/l1.exe PID=      4079.
  
 Copyright (c) 1988,1990,1992,1993,1995,1998,2003,2009,2015,
            Gaussian, Inc.  All Rights Reserved.
  
 This is part of the Gaussian(R) 09 program.  It is based on
 the Gaussian(R) 03 system (copyright 2003, Gaussian, Inc.),
 the Gaussian(R) 98 system (copyright 1998, Gaussian, Inc.),
 the Gaussian(R) 94 system (copyright 1995, Gaussian, Inc.),
 the Gaussian 92(TM) system (copyright 1992, Gaussian, Inc.),
 the Gaussian 90(TM) system (copyright 1990, Gaussian, Inc.),
 the Gaussian 88(TM) system (copyright 1988, Gaussian, Inc.),
 the Gaussian 86(TM) system (copyright 1986, Carnegie Mellon
 University), and the Gaussian 82(TM) system (copyright 1983,
 Carnegie Mellon University). Gaussian is a federally registered
 trademark of Gaussian, Inc.
  
 This software contains proprietary and confidential information,
 including trade secrets, belonging to Gaussian, Inc.
  
 This software is provided under written license and may be
 used, copied, transmitted, or stored only in accord with that
 written license.
  
 The following legend is applicable only to US Government
 contracts under FAR:
  
                    RESTRICTED RIGHTS LEGEND
  
 Use, reproduction and disclosure by the US Government is
 subject to restrictions as set forth in subparagraphs (a)
 and (c) of the Commercial Computer Software - Restricted
 Rights clause in FAR 52.227-19.
  
 Gaussian, Inc.
 340 Quinnipiac St., Bldg. 40, Wallingford CT 06492
  
  
 ---------------------------------------------------------------
 Warning -- This program may not be used in any manner that
 competes with the business of Gaussian, Inc. or will provide
 assistance to any competitor of Gaussian, Inc.  The licensee
 of this program is prohibited from giving any competitor of
 Gaussian, Inc. access to this program.  By using this program,
 the user acknowledges that Gaussian, Inc. is engaged in the
 business of creating and licensing software in the field of
 computational chemistry and represents and warrants to the
 licensee that it is not a competitor of Gaussian, Inc. and that
 it will not use this program in any manner prohibited above.
 ---------------------------------------------------------------
  

 Cite this work as:
 Gaussian 09, Revision E.01,
 M. J. Frisch, G. W. Trucks, H. B. Schlegel, G. E. Scuseria, 
 M. A. Robb, J. R. Cheeseman, G. Scalmani, V. Barone, B. Mennucci, 
 G. A. Petersson, H. Nakatsuji, M. Caricato, X. Li, H. P. Hratchian, 
 A. F. Izmaylov, J. Bloino, G. Zheng, J. L. Sonnenberg, M. Hada, 
 M. Ehara, K. Toyota, R. Fukuda, J. Hasegawa, M. Ishida, T. Nakajima, 
 Y. Honda, O. Kitao, H. Nakai, T. Vreven, J. A. Montgomery, Jr., 
 J. E. Peralta, F. Ogliaro, M. Bearpark, J. J. Heyd, E. Brothers, 
 K. N. Kudin, V. N. Staroverov, T. Keith, R. Kobayashi, J. Normand, 
 K. Raghavachari, A. Rendell, J. C. Burant, S. S. Iyengar, J. Tomasi, 
 M. Cossi, N. Rega, J. M. Millam, M. Klene, J. E. Knox, J. B. Cross, 
 V. Bakken, C. Adamo, J. Jaramillo, R. Gomperts, R. E. Stratmann, 
 O. Yazyev, A. J. Austin, R. Cammi, C. Pomelli, J. W. Ochterski, 
 R. L. Martin, K. Morokuma, V. G. Zakrzewski, G. A. Voth, 
 P. Salvador, J. J. Dannenberg, S. Dapprich, A. D. Daniels, 
 O. Farkas, J. B. Foresman, J. V. Ortiz, J. Cioslowski, 
 and D. J. Fox, Gaussian, Inc., Wallingford CT, 2013.
 
 ******************************************
 Gaussian 09:  ES64L-G09RevE.01 30-Nov-2015
                28-Oct-2021 
 ******************************************
 %mem=20GB
 %NProcShared=10
 Will use up to   10 processors via shared memory.
 ----------------------------------------------------------------------
 #P wb97xd/6-31g* # SCF=(xqc) # Opt # Freq=() # IOp(7/33=1) # int=ultra
 fine
 ----------------------------------------------------------------------
 1/14=-1,18=20,19=15,26=4,38=1/1,3;
 2/9=110,12=2,17=6,18=5,40=1/2;
 3/5=1,6=6,7=1,11=2,16=1,25=1,30=1,71=1,74=-58,75=-5/1,2,3;
 4//1;
 5/5=2,8=3,13=1,38=5/2,8;
 6/7=2,8=2,9=2,10=2,28=1/1;
 7/33=1/1,2,3,16;
 1/14=-1,18=20,19=15,26=4/3(2);
 2/9=110/2;
 99//99;
 2/9=110/2;
 3/5=1,6=6,7=1,11=2,16=1,25=1,30=1,71=1,74=-58,75=-5/1,2,3;
 4/5=5,16=3,69=1/1;
 5/5=2,8=3,13=1,38=5/2,8;
 7/33=1/1,2,3,16;
 1/14=-1,18=20,19=15,26=4/3(-5);
 2/9=110/2;
 6/7=2,8=2,9=2,10=2,19=2,28=1/1;
 99/9=1/99;
 Leave Link    1 at Thu Oct 28 15:26:24 2021, MaxMem=  2684354560 cpu:         0.7
 (Enter /soft/gaussian/09-e.01/g09/l101.exe)
 --------
 comment:
 --------
 Symbolic Z-matrix:
 Charge =  0 Multiplicity = 2
 C                     0.        0.        0. 
 O                     1.219     0.        0. 
 H                    -1.084     0.        0. 
 
 NAtoms=      3 NQM=        3 NQMF=       0 NMMI=      0 NMMIF=      0
                NMic=       0 NMicF=      0.
                    Isotopes and Nuclear Properties:
 (Nuclear quadrupole moments (NQMom) in fm**2, nuclear magnetic moments (NMagM)
  in nuclear magnetons)

  Atom         1           2           3
 IAtWgt=          12          16           1
 AtmWgt=  12.0000000  15.9949146   1.0078250
 NucSpn=           0           0           1
 AtZEff=   0.0000000   0.0000000   0.0000000
 NQMom=    0.0000000   0.0000000   0.0000000
 NMagM=    0.0000000   0.0000000   2.7928460
 AtZNuc=   6.0000000   8.0000000   1.0000000
 Leave Link  101 at Thu Oct 28 15:26:24 2021, MaxMem=  2684354560 cpu:         2.8
 (Enter /soft/gaussian/09-e.01/g09/l103.exe)

 GradGradGradGradGradGradGradGradGradGradGradGradGradGradGradGradGradGrad
 Berny optimization.
 Initialization pass.
                           ----------------------------
                           !    Initial Parameters    !
                           ! (Angstroms and Degrees)  !
 --------------------------                            --------------------------
 ! Name  Definition              Value          Derivative Info.                !
 --------------------------------------------------------------------------------
 ! R1    R(1,2)                  1.219          estimate D2E/DX2                !
 ! R2    R(1,3)                  1.084          estimate D2E/DX2                !
 ! A1    L(2,1,3,-2,-1)        180.0            estimate D2E/DX2                !
 ! A2    L(2,1,3,-3,-2)        180.0            estimate D2E/DX2                !
 --------------------------------------------------------------------------------
 Trust Radius=3.00D-01 FncErr=1.00D-07 GrdErr=1.00D-06
 Number of steps in this run=     20 maximum allowed number of steps=    100.
 GradGradGradGradGradGradGradGradGradGradGradGradGradGradGradGradGradGrad

 Leave Link  103 at Thu Oct 28 15:26:24 2021, MaxMem=  2684354560 cpu:         0.1
 (Enter /soft/gaussian/09-e.01/g09/l202.exe)
                          Input orientation:                          
 ---------------------------------------------------------------------
 Center     Atomic      Atomic             Coordinates (Angstroms)
 Number     Number       Type             X           Y           Z
 ---------------------------------------------------------------------
      1          6           0        0.000000    0.000000    0.000000
      2          8           0        1.219000    0.000000    0.000000
      3          1           0       -1.084000    0.000000    0.000000
 ---------------------------------------------------------------------
                    Distance matrix (angstroms):
                    1          2          3
     1  C    0.000000
     2  O    1.219000   0.000000
     3  H    1.084000   2.303000   0.000000
 Stoichiometry    CHO(2)
 Framework group  C*V[C*(HCO)]
 Deg. of freedom     2
 Full point group                 C*V     NOp   4
 Largest Abelian subgroup         C2V     NOp   4
 Largest concise Abelian subgroup C1      NOp   1
                         Standard orientation:                         
 ---------------------------------------------------------------------
 Center     Atomic      Atomic             Coordinates (Angstroms)
 Number     Number       Type             X           Y           Z
 ---------------------------------------------------------------------
      1          6           0        0.000000    0.000000   -0.577867
      2          8           0        0.000000    0.000000    0.641133
      3          1           0        0.000000    0.000000   -1.661867
 ---------------------------------------------------------------------
 Rotational constants (GHZ):      0.0000000     38.0787568     38.0787568
 Leave Link  202 at Thu Oct 28 15:26:24 2021, MaxMem=  2684354560 cpu:         0.1
 (Enter /soft/gaussian/09-e.01/g09/l301.exe)
 Standard basis: 6-31G(d) (6D, 7F)
 Ernie: Thresh=  0.10000D-02 Tol=  0.10000D-05 Strict=F.
 There are    18 symmetry adapted cartesian basis functions of A1  symmetry.
 There are     2 symmetry adapted cartesian basis functions of A2  symmetry.
 There are     6 symmetry adapted cartesian basis functions of B1  symmetry.
 There are     6 symmetry adapted cartesian basis functions of B2  symmetry.
 There are    18 symmetry adapted basis functions of A1  symmetry.
 There are     2 symmetry adapted basis functions of A2  symmetry.
 There are     6 symmetry adapted basis functions of B1  symmetry.
 There are     6 symmetry adapted basis functions of B2  symmetry.
    32 basis functions,    60 primitive gaussians,    32 cartesian basis functions
     8 alpha electrons        7 beta electrons
       nuclear repulsion energy        25.6044103810 Hartrees.
 IExCor= 4639 DFT=T Ex+Corr=wB97XD ExCW=0 ScaHFX=  1.000000
 ScaDFX=  1.000000  1.000000  1.000000  1.000000 ScalE2=  1.000000  1.000000
 IRadAn=      5 IRanWt=     -1 IRanGd=            0 ICorTp=0 IEmpDi=121
  HFx wShort=  0.000000 wLong=  0.200000 cFull=  0.222036 cShort=  0.000000 cLong=  0.777964
  DFx wShort=  0.000000 wLong=  0.200000 cFull=  0.000000 cShort=  0.000000 cLong=  1.000000
 NAtoms=    3 NActive=    3 NUniq=    3 SFac= 1.00D+00 NAtFMM=   60 NAOKFM=F Big=F
 Integral buffers will be    131072 words long.
 Raffenetti 2 integral format.
 Two-electron integral symmetry is turned on.
 R6Disp:  Grimme-D2 Dispersion energy=       -0.0000974905 Hartrees.
 Nuclear repulsion after empirical dispersion term =       25.6043128905 Hartrees.
 Leave Link  301 at Thu Oct 28 15:26:25 2021, MaxMem=  2684354560 cpu:         0.6
 (Enter /soft/gaussian/09-e.01/g09/l302.exe)
 NPDir=0 NMtPBC=     1 NCelOv=     1 NCel=       1 NClECP=     1 NCelD=      1
         NCelK=      1 NCelE2=     1 NClLst=     1 CellRange=     0.0.
 One-electron integrals computed using PRISM.
 NBasis=    32 RedAO= T EigKep=  1.08D-02  NBF=    18     2     6     6
 NBsUse=    32 1.00D-06 EigRej= -1.00D+00 NBFU=    18     2     6     6
 Precomputing XC quadrature grid using
 IXCGrd= 4 IRadAn=           5 IRanWt=          -1 IRanGd=           0 AccXCQ= 0.00D+00.
 Generated NRdTot=       0 NPtTot=           0 NUsed=           0 NTot=          32
 NSgBfM=    32    32    32    32    32 MxSgAt=     3 MxSgA2=     3.
 Leave Link  302 at Thu Oct 28 15:26:25 2021, MaxMem=  2684354560 cpu:         2.0
 (Enter /soft/gaussian/09-e.01/g09/l303.exe)
 DipDrv:  MaxL=1.
 Leave Link  303 at Thu Oct 28 15:26:25 2021, MaxMem=  2684354560 cpu:         0.2
 (Enter /soft/gaussian/09-e.01/g09/l401.exe)
 ExpMin= 1.61D-01 ExpMax= 5.48D+03 ExpMxC= 8.25D+02 IAcc=3 IRadAn=         5 AccDes= 0.00D+00
 Harris functional with IExCor= 4639 and IRadAn=       5 diagonalized for initial guess.
 HarFok:  IExCor= 4639 AccDes= 0.00D+00 IRadAn=         5 IDoV= 1 UseB2=F ITyADJ=14
 ICtDFT=  3500011 ScaDFX=  1.000000  1.000000  1.000000  1.000000
 FoFCou: FMM=F IPFlag=           0 FMFlag=      100000 FMFlg1=           0
         NFxFlg=           0 DoJE=T BraDBF=F KetDBF=T FulRan=T
         wScrn=  0.000000 ICntrl=     500 IOpCl=  0 I1Cent=   200000004 NGrid=           0
         NMat0=    1 NMatS0=      1 NMatT0=    0 NMatD0=    1 NMtDS0=    0 NMtDT0=    0
 Petite list used in FoFCou.
 Harris En= -109.476380208910    
 JPrj=0 DoOrth=F DoCkMO=F.
 Initial guess orbital symmetries:
 Alpha Orbitals:
       Occupied  (SG) (SG) (SG) (SG) (SG) (PI) (PI) (PI)
       Virtual   (PI) (SG) (SG) (PI) (PI) (SG) (SG) (SG) (PI) (PI)
                 (SG) (PI) (PI) (DLTA) (DLTA) (SG) (DLTA) (DLTA)
                 (PI) (PI) (SG) (SG) (SG) (SG)
 Beta  Orbitals:
       Occupied  (SG) (SG) (SG) (SG) (SG) (PI) (PI)
       Virtual   (PI) (PI) (SG) (SG) (PI) (PI) (SG) (SG) (SG) (PI)
                 (PI) (SG) (PI) (PI) (DLTA) (DLTA) (SG) (DLTA)
                 (DLTA) (PI) (PI) (SG) (SG) (SG) (SG)
 Initial guess <Sx>= 0.0000 <Sy>= 0.0000 <Sz>= 0.5000 <S**2>= 0.7500 S= 0.5000
 Leave Link  401 at Thu Oct 28 15:26:26 2021, MaxMem=  2684354560 cpu:         2.2
 (Enter /soft/gaussian/09-e.01/g09/l502.exe)
 UHF open shell SCF:
 Using DIIS extrapolation, IDIIS=  1040.
 Integral symmetry usage will be decided dynamically.
 Keep R1 and R2 ints in memory in symmetry-blocked form, NReq=1153576.
 IVT=        9616 IEndB=        9616 NGot=  2684354560 MDV=  2684261601
 LenX=  2684261601 LenY=  2684260136
 Requested convergence on RMS density matrix=1.00D-08 within  64 cycles.
 Requested convergence on MAX density matrix=1.00D-06.
 Requested convergence on             energy=1.00D-06.
 No special actions if energy rises.
 FoFCou: FMM=F IPFlag=           0 FMFlag=           0 FMFlg1=           0
         NFxFlg=           0 DoJE=F BraDBF=F KetDBF=F FulRan=T
         wScrn=  0.000000 ICntrl=     600 IOpCl=  0 I1Cent=           0 NGrid=           0
         NMat0=    1 NMatS0=    528 NMatT0=    0 NMatD0=    1 NMtDS0=    0 NMtDT0=    0
 Petite list used in FoFCou.
 Integral accuracy reduced to 1.0D-05 until final iterations.

 Cycle   1  Pass 0  IDiag  1:
 E= -113.730366746378    
 DIIS: error= 7.23D-02 at cycle   1 NSaved=   1.
 NSaved= 1 IEnMin= 1 EnMin= -113.730366746378     IErMin= 1 ErrMin= 7.23D-02
 ErrMax= 7.23D-02  0.00D+00 EMaxC= 1.00D-01 BMatC= 4.20D-01 BMatP= 4.20D-01
 IDIUse=3 WtCom= 2.77D-01 WtEn= 7.23D-01
 Coeff-Com:  0.100D+01
 Coeff-En:   0.100D+01
 Coeff:      0.100D+01
 Gap=     0.251 Goal=   None    Shift=    0.000
 Gap=     0.522 Goal=   None    Shift=    0.000
 GapD=    0.251 DampG=1.000 DampE=0.500 DampFc=0.5000 IDamp=-1.
 Damping current iteration by 5.00D-01
 RMSDP=8.69D-03 MaxDP=9.01D-02              OVMax= 9.50D-02

 Cycle   2  Pass 0  IDiag  1:
 E= -113.744728636252     Delta-E=       -0.014361889874 Rises=F Damp=T
 DIIS: error= 3.60D-02 at cycle   2 NSaved=   2.
 NSaved= 2 IEnMin= 2 EnMin= -113.744728636252     IErMin= 2 ErrMin= 3.60D-02
 ErrMax= 3.60D-02  0.00D+00 EMaxC= 1.00D-01 BMatC= 7.39D-02 BMatP= 4.20D-01
 IDIUse=3 WtCom= 6.40D-01 WtEn= 3.60D-01
 Coeff-Com: -0.285D+00 0.128D+01
 Coeff-En:   0.000D+00 0.100D+01
 Coeff:     -0.182D+00 0.118D+01
 Gap=     0.262 Goal=   None    Shift=    0.000
 Gap=     0.476 Goal=   None    Shift=    0.000
 RMSDP=3.77D-03 MaxDP=4.45D-02 DE=-1.44D-02 OVMax= 9.25D-02

 Cycle   3  Pass 0  IDiag  1:
 E= -113.754843010875     Delta-E=       -0.010114374623 Rises=F Damp=F
 DIIS: error= 2.32D-02 at cycle   3 NSaved=   3.
 NSaved= 3 IEnMin= 3 EnMin= -113.754843010875     IErMin= 3 ErrMin= 2.32D-02
 ErrMax= 2.32D-02  0.00D+00 EMaxC= 1.00D-01 BMatC= 4.49D-02 BMatP= 7.39D-02
 IDIUse=3 WtCom= 7.68D-01 WtEn= 2.32D-01
 Coeff-Com: -0.299D+00 0.689D+00 0.610D+00
 Coeff-En:   0.000D+00 0.000D+00 0.100D+01
 Coeff:     -0.230D+00 0.529D+00 0.700D+00
 Gap=     0.260 Goal=   None    Shift=    0.000
 Gap=     0.504 Goal=   None    Shift=    0.000
 RMSDP=2.53D-03 MaxDP=3.03D-02 DE=-1.01D-02 OVMax= 4.98D-02

 Cycle   4  Pass 0  IDiag  1:
 E= -113.761678216254     Delta-E=       -0.006835205379 Rises=F Damp=F
 DIIS: error= 1.05D-02 at cycle   4 NSaved=   4.
 NSaved= 4 IEnMin= 4 EnMin= -113.761678216254     IErMin= 4 ErrMin= 1.05D-02
 ErrMax= 1.05D-02  0.00D+00 EMaxC= 1.00D-01 BMatC= 8.89D-03 BMatP= 4.49D-02
 IDIUse=3 WtCom= 8.95D-01 WtEn= 1.05D-01
 Coeff-Com: -0.157D-01 0.232D-01 0.322D+00 0.671D+00
 Coeff-En:   0.000D+00 0.000D+00 0.180D+00 0.820D+00
 Coeff:     -0.141D-01 0.208D-01 0.307D+00 0.686D+00
 Gap=     0.258 Goal=   None    Shift=    0.000
 Gap=     0.499 Goal=   None    Shift=    0.000
 RMSDP=8.71D-04 MaxDP=1.06D-02 DE=-6.84D-03 OVMax= 1.73D-02

 Cycle   5  Pass 0  IDiag  1:
 E= -113.763345016256     Delta-E=       -0.001666800002 Rises=F Damp=F
 DIIS: error= 1.06D-03 at cycle   5 NSaved=   5.
 NSaved= 5 IEnMin= 5 EnMin= -113.763345016256     IErMin= 5 ErrMin= 1.06D-03
 ErrMax= 1.06D-03  0.00D+00 EMaxC= 1.00D-01 BMatC= 4.31D-05 BMatP= 8.89D-03
 IDIUse=3 WtCom= 9.89D-01 WtEn= 1.06D-02
 Coeff-Com:  0.209D-01-0.436D-01-0.126D+00-0.133D+00 0.128D+01
 Coeff-En:   0.000D+00 0.000D+00 0.000D+00 0.000D+00 0.100D+01
 Coeff:      0.207D-01-0.432D-01-0.124D+00-0.132D+00 0.128D+01
 Gap=     0.258 Goal=   None    Shift=    0.000
 Gap=     0.500 Goal=   None    Shift=    0.000
 RMSDP=1.65D-04 MaxDP=2.21D-03 DE=-1.67D-03 OVMax= 3.75D-03

 Cycle   6  Pass 0  IDiag  1:
 E= -113.763372343922     Delta-E=       -0.000027327666 Rises=F Damp=F
 DIIS: error= 3.23D-04 at cycle   6 NSaved=   6.
 NSaved= 6 IEnMin= 6 EnMin= -113.763372343922     IErMin= 6 ErrMin= 3.23D-04
 ErrMax= 3.23D-04  0.00D+00 EMaxC= 1.00D-01 BMatC= 3.69D-06 BMatP= 4.31D-05
 IDIUse=3 WtCom= 9.97D-01 WtEn= 3.23D-03
 Coeff-Com: -0.273D-02 0.644D-02-0.780D-03-0.277D-01-0.294D+00 0.132D+01
 Coeff-En:   0.000D+00 0.000D+00 0.000D+00 0.000D+00 0.000D+00 0.100D+01
 Coeff:     -0.272D-02 0.641D-02-0.777D-03-0.277D-01-0.293D+00 0.132D+01
 Gap=     0.258 Goal=   None    Shift=    0.000
 Gap=     0.500 Goal=   None    Shift=    0.000
 RMSDP=7.70D-05 MaxDP=1.05D-03 DE=-2.73D-05 OVMax= 1.97D-03

 Cycle   7  Pass 0  IDiag  1:
 E= -113.763378205741     Delta-E=       -0.000005861819 Rises=F Damp=F
 DIIS: error= 2.35D-04 at cycle   7 NSaved=   7.
 NSaved= 7 IEnMin= 7 EnMin= -113.763378205741     IErMin= 7 ErrMin= 2.35D-04
 ErrMax= 2.35D-04  0.00D+00 EMaxC= 1.00D-01 BMatC= 1.04D-06 BMatP= 3.69D-06
 IDIUse=3 WtCom= 9.98D-01 WtEn= 2.35D-03
 Coeff-Com: -0.330D-02 0.639D-02 0.285D-01 0.416D-01-0.123D+00-0.711D+00
 Coeff-Com:  0.176D+01
 Coeff-En:   0.000D+00 0.000D+00 0.000D+00 0.000D+00 0.000D+00 0.000D+00
 Coeff-En:   0.100D+01
 Coeff:     -0.329D-02 0.637D-02 0.285D-01 0.415D-01-0.122D+00-0.709D+00
 Coeff:      0.176D+01
 Gap=     0.258 Goal=   None    Shift=    0.000
 Gap=     0.500 Goal=   None    Shift=    0.000
 RMSDP=6.10D-05 MaxDP=1.10D-03 DE=-5.86D-06 OVMax= 2.05D-03

 Cycle   8  Pass 0  IDiag  1:
 E= -113.763380592549     Delta-E=       -0.000002386808 Rises=F Damp=F
 DIIS: error= 8.28D-05 at cycle   8 NSaved=   8.
 NSaved= 8 IEnMin= 8 EnMin= -113.763380592549     IErMin= 8 ErrMin= 8.28D-05
 ErrMax= 8.28D-05  0.00D+00 EMaxC= 1.00D-01 BMatC= 1.59D-07 BMatP= 1.04D-06
 IDIUse=1 WtCom= 1.00D+00 WtEn= 0.00D+00
 Coeff-Com:  0.219D-02-0.439D-02-0.141D-01-0.146D-01 0.117D+00 0.145D+00
 Coeff-Com: -0.101D+01 0.178D+01
 Coeff:      0.219D-02-0.439D-02-0.141D-01-0.146D-01 0.117D+00 0.145D+00
 Coeff:     -0.101D+01 0.178D+01
 Gap=     0.258 Goal=   None    Shift=    0.000
 Gap=     0.500 Goal=   None    Shift=    0.000
 RMSDP=3.03D-05 MaxDP=5.75D-04 DE=-2.39D-06 OVMax= 1.04D-03

 Cycle   9  Pass 0  IDiag  1:
 E= -113.763381007821     Delta-E=       -0.000000415272 Rises=F Damp=F
 DIIS: error= 2.85D-05 at cycle   9 NSaved=   9.
 NSaved= 9 IEnMin= 9 EnMin= -113.763381007821     IErMin= 9 ErrMin= 2.85D-05
 ErrMax= 2.85D-05  0.00D+00 EMaxC= 1.00D-01 BMatC= 1.24D-08 BMatP= 1.59D-07
 IDIUse=1 WtCom= 1.00D+00 WtEn= 0.00D+00
 Coeff-Com: -0.216D-03 0.426D-03 0.408D-03-0.522D-03-0.136D-01 0.103D-01
 Coeff-Com:  0.122D+00-0.514D+00 0.139D+01
 Coeff:     -0.216D-03 0.426D-03 0.408D-03-0.522D-03-0.136D-01 0.103D-01
 Coeff:      0.122D+00-0.514D+00 0.139D+01
 Gap=     0.258 Goal=   None    Shift=    0.000
 Gap=     0.500 Goal=   None    Shift=    0.000
 RMSDP=7.19D-06 MaxDP=1.29D-04 DE=-4.15D-07 OVMax= 2.44D-04

 Initial convergence to 1.0D-05 achieved.  Increase integral accuracy.
 Cycle  10  Pass 1  IDiag  1:
 E= -113.763397846578     Delta-E=       -0.000016838757 Rises=F Damp=F
 DIIS: error= 2.38D-05 at cycle   1 NSaved=   1.
 NSaved= 1 IEnMin= 1 EnMin= -113.763397846578     IErMin= 1 ErrMin= 2.38D-05
 ErrMax= 2.38D-05  0.00D+00 EMaxC= 1.00D-01 BMatC= 7.73D-08 BMatP= 7.73D-08
 IDIUse=1 WtCom= 1.00D+00 WtEn= 0.00D+00
 Coeff-Com:  0.100D+01
 Coeff:      0.100D+01
 Gap=     0.258 Goal=   None    Shift=    0.000
 Gap=     0.500 Goal=   None    Shift=    0.000
 RMSDP=7.19D-06 MaxDP=1.29D-04 DE=-1.68D-05 OVMax= 4.87D-05

 Cycle  11  Pass 1  IDiag  1:
 E= -113.763397857945     Delta-E=       -0.000000011366 Rises=F Damp=F
 DIIS: error= 6.60D-06 at cycle   2 NSaved=   2.
 NSaved= 2 IEnMin= 2 EnMin= -113.763397857945     IErMin= 2 ErrMin= 6.60D-06
 ErrMax= 6.60D-06  0.00D+00 EMaxC= 1.00D-01 BMatC= 3.61D-09 BMatP= 7.73D-08
 IDIUse=1 WtCom= 1.00D+00 WtEn= 0.00D+00
 Coeff-Com:  0.636D-01 0.936D+00
 Coeff:      0.636D-01 0.936D+00
 Gap=     0.258 Goal=   None    Shift=    0.000
 Gap=     0.500 Goal=   None    Shift=    0.000
 RMSDP=1.31D-06 MaxDP=2.26D-05 DE=-1.14D-08 OVMax= 2.28D-05

 Cycle  12  Pass 1  IDiag  1:
 E= -113.763397858420     Delta-E=       -0.000000000475 Rises=F Damp=F
 DIIS: error= 8.51D-06 at cycle   3 NSaved=   3.
 NSaved= 3 IEnMin= 3 EnMin= -113.763397858420     IErMin= 2 ErrMin= 6.60D-06
 ErrMax= 8.51D-06  0.00D+00 EMaxC= 1.00D-01 BMatC= 3.33D-09 BMatP= 3.61D-09
 IDIUse=1 WtCom= 1.00D+00 WtEn= 0.00D+00
 Coeff-Com: -0.145D-01 0.487D+00 0.528D+00
 Coeff:     -0.145D-01 0.487D+00 0.528D+00
 Gap=     0.258 Goal=   None    Shift=    0.000
 Gap=     0.500 Goal=   None    Shift=    0.000
 RMSDP=6.24D-07 MaxDP=9.92D-06 DE=-4.75D-10 OVMax= 1.72D-05

 Cycle  13  Pass 1  IDiag  1:
 E= -113.763397859070     Delta-E=       -0.000000000650 Rises=F Damp=F
 DIIS: error= 2.48D-06 at cycle   4 NSaved=   4.
 NSaved= 4 IEnMin= 4 EnMin= -113.763397859070     IErMin= 4 ErrMin= 2.48D-06
 ErrMax= 2.48D-06  0.00D+00 EMaxC= 1.00D-01 BMatC= 4.13D-10 BMatP= 3.33D-09
 IDIUse=1 WtCom= 1.00D+00 WtEn= 0.00D+00
 Coeff-Com: -0.151D-01 0.104D+00 0.276D+00 0.635D+00
 Coeff:     -0.151D-01 0.104D+00 0.276D+00 0.635D+00
 Gap=     0.258 Goal=   None    Shift=    0.000
 Gap=     0.500 Goal=   None    Shift=    0.000
 RMSDP=2.31D-07 MaxDP=3.55D-06 DE=-6.50D-10 OVMax= 5.19D-06

 Cycle  14  Pass 1  IDiag  1:
 E= -113.763397859194     Delta-E=       -0.000000000125 Rises=F Damp=F
 DIIS: error= 1.30D-06 at cycle   5 NSaved=   5.
 NSaved= 5 IEnMin= 5 EnMin= -113.763397859194     IErMin= 5 ErrMin= 1.30D-06
 ErrMax= 1.30D-06  0.00D+00 EMaxC= 1.00D-01 BMatC= 3.46D-11 BMatP= 4.13D-10
 IDIUse=1 WtCom= 1.00D+00 WtEn= 0.00D+00
 Coeff-Com:  0.633D-02-0.120D+00-0.151D+00-0.213D+00 0.148D+01
 Coeff:      0.633D-02-0.120D+00-0.151D+00-0.213D+00 0.148D+01
 Gap=     0.258 Goal=   None    Shift=    0.000
 Gap=     0.500 Goal=   None    Shift=    0.000
 RMSDP=2.61D-07 MaxDP=4.57D-06 DE=-1.25D-10 OVMax= 8.82D-06

 Cycle  15  Pass 1  IDiag  1:
 E= -113.763397859255     Delta-E=       -0.000000000061 Rises=F Damp=F
 DIIS: error= 6.83D-07 at cycle   6 NSaved=   6.
 NSaved= 6 IEnMin= 6 EnMin= -113.763397859255     IErMin= 6 ErrMin= 6.83D-07
 ErrMax= 6.83D-07  0.00D+00 EMaxC= 1.00D-01 BMatC= 8.16D-12 BMatP= 3.46D-11
 IDIUse=1 WtCom= 1.00D+00 WtEn= 0.00D+00
 Coeff-Com:  0.205D-03 0.277D-01-0.444D-02 0.199D-01-0.642D+00 0.160D+01
 Coeff:      0.205D-03 0.277D-01-0.444D-02 0.199D-01-0.642D+00 0.160D+01
 Gap=     0.258 Goal=   None    Shift=    0.000
 Gap=     0.500 Goal=   None    Shift=    0.000
 RMSDP=1.57D-07 MaxDP=2.95D-06 DE=-6.08D-11 OVMax= 5.55D-06

 Cycle  16  Pass 1  IDiag  1:
 E= -113.763397859272     Delta-E=       -0.000000000017 Rises=F Damp=F
 DIIS: error= 2.94D-07 at cycle   7 NSaved=   7.
 NSaved= 7 IEnMin= 7 EnMin= -113.763397859272     IErMin= 7 ErrMin= 2.94D-07
 ErrMax= 2.94D-07  0.00D+00 EMaxC= 1.00D-01 BMatC= 1.42D-12 BMatP= 8.16D-12
 IDIUse=1 WtCom= 1.00D+00 WtEn= 0.00D+00
 Coeff-Com: -0.104D-02 0.853D-02 0.325D-01 0.214D-01 0.421D-01-0.796D+00
 Coeff-Com:  0.169D+01
 Coeff:     -0.104D-02 0.853D-02 0.325D-01 0.214D-01 0.421D-01-0.796D+00
 Coeff:      0.169D+01
 Gap=     0.258 Goal=   None    Shift=    0.000
 Gap=     0.500 Goal=   None    Shift=    0.000
 RMSDP=8.05D-08 MaxDP=1.50D-06 DE=-1.70D-11 OVMax= 2.78D-06

 Cycle  17  Pass 1  IDiag  1:
 E= -113.763397859276     Delta-E=       -0.000000000004 Rises=F Damp=F
 DIIS: error= 8.76D-08 at cycle   8 NSaved=   8.
 NSaved= 8 IEnMin= 8 EnMin= -113.763397859276     IErMin= 8 ErrMin= 8.76D-08
 ErrMax= 8.76D-08  0.00D+00 EMaxC= 1.00D-01 BMatC= 1.96D-13 BMatP= 1.42D-12
 IDIUse=1 WtCom= 1.00D+00 WtEn= 0.00D+00
 Coeff-Com:  0.397D-03-0.779D-02-0.162D-01-0.166D-01 0.663D-01 0.211D+00
 Coeff-Com: -0.970D+00 0.173D+01
 Coeff:      0.397D-03-0.779D-02-0.162D-01-0.166D-01 0.663D-01 0.211D+00
 Coeff:     -0.970D+00 0.173D+01
 Gap=     0.258 Goal=   None    Shift=    0.000
 Gap=     0.500 Goal=   None    Shift=    0.000
 RMSDP=3.16D-08 MaxDP=5.78D-07 DE=-3.52D-12 OVMax= 1.05D-06

 Cycle  18  Pass 1  IDiag  1:
 E= -113.763397859276     Delta-E=       -0.000000000000 Rises=F Damp=F
 DIIS: error= 1.81D-08 at cycle   9 NSaved=   9.
 NSaved= 9 IEnMin= 9 EnMin= -113.763397859276     IErMin= 9 ErrMin= 1.81D-08
 ErrMax= 1.81D-08  0.00D+00 EMaxC= 1.00D-01 BMatC= 1.66D-14 BMatP= 1.96D-13
 IDIUse=1 WtCom= 1.00D+00 WtEn= 0.00D+00
 Coeff-Com: -0.708D-05 0.169D-02 0.280D-02 0.151D-02-0.296D-01 0.255D-01
 Coeff-Com:  0.137D+00-0.581D+00 0.144D+01
 Coeff:     -0.708D-05 0.169D-02 0.280D-02 0.151D-02-0.296D-01 0.255D-01
 Coeff:      0.137D+00-0.581D+00 0.144D+01
 Gap=     0.258 Goal=   None    Shift=    0.000
 Gap=     0.500 Goal=   None    Shift=    0.000
 RMSDP=6.96D-09 MaxDP=9.87D-08 DE=-4.55D-13 OVMax= 1.95D-07

 SCF Done:  E(UwB97XD) =  -113.763397859     A.U. after   18 cycles
            NFock= 18  Conv=0.70D-08     -V/T= 2.0095
 <Sx>= 0.0000 <Sy>= 0.0000 <Sz>= 0.5000 <S**2>= 0.7542 S= 0.5021
 <L.S>= 0.000000000000E+00
 KE= 1.126958941769D+02 PE=-3.182134782571D+02 EE= 6.614987333049D+01
 Annihilation of the first spin contaminant:
 S**2 before annihilation     0.7542,   after     0.7500
 Leave Link  502 at Thu Oct 28 15:26:26 2021, MaxMem=  2684354560 cpu:         4.8
 (Enter /soft/gaussian/09-e.01/g09/l508.exe)
 QCSCF skips out because SCF is already converged.
 Leave Link  508 at Thu Oct 28 15:26:26 2021, MaxMem=  2684354560 cpu:         0.0
 (Enter /soft/gaussian/09-e.01/g09/l601.exe)
 Copying SCF densities to generalized density rwf, IOpCl= 1 IROHF=0.

 **********************************************************************

            Population analysis using the SCF density.

 **********************************************************************

 Orbital symmetries:
 Alpha Orbitals:
       Occupied  (SG) (SG) (SG) (SG) (SG) (PI) (PI) (PI)
       Virtual   (PI) (SG) (SG) (PI) (PI) (SG) (SG) (SG) (PI) (PI)
                 (SG) (PI) (PI) (?A) (?A) (?A) (DLTA) (DLTA) (PI)
                 (PI) (SG) (SG) (SG) (SG)
 Beta  Orbitals:
       Occupied  (SG) (SG) (SG) (SG) (SG) (PI) (PI)
       Virtual   (PI) (PI) (SG) (SG) (PI) (PI) (SG) (SG) (SG) (PI)
                 (PI) (SG) (PI) (PI) (?A) (?A) (?A) (DLTA) (DLTA)
                 (PI) (PI) (SG) (SG) (SG) (SG)
 Unable to determine electronic state:  partially filled degenerate orbitals.
 Alpha  occ. eigenvalues --  -19.32744 -10.39233  -1.16959  -0.73139  -0.57023
 Alpha  occ. eigenvalues --   -0.51492  -0.48981  -0.22609
 Alpha virt. eigenvalues --    0.03229   0.13292   0.33630   0.59472   0.60872
 Alpha virt. eigenvalues --    0.70195   0.82144   0.92594   1.03584   1.04189
 Alpha virt. eigenvalues --    1.08668   1.57334   1.57543   1.60547   1.60830
 Alpha virt. eigenvalues --    1.66867   2.01156   2.01363   2.59927   2.59998
 Alpha virt. eigenvalues --    2.63342   3.01397   3.99792   4.20740
  Beta  occ. eigenvalues --  -19.32012 -10.38235  -1.15091  -0.69944  -0.55738
  Beta  occ. eigenvalues --   -0.48057  -0.45056
  Beta virt. eigenvalues --    0.04983   0.08153   0.14934   0.34230   0.62045
  Beta virt. eigenvalues --    0.63883   0.71245   0.83662   0.93621   1.04535
  Beta virt. eigenvalues --    1.06392   1.09197   1.58400   1.61195   1.64530
  Beta virt. eigenvalues --    1.64631   1.67434   2.04805   2.04846   2.60791
  Beta virt. eigenvalues --    2.63541   2.65868   3.02525   4.01298   4.23949
          Condensed to atoms (all electrons):
               1          2          3
     1  C    5.181517   0.437980   0.337049
     2  O    0.437980   7.928623  -0.018886
     3  H    0.337049  -0.018886   0.377573
          Atomic-Atomic Spin Densities.
               1          2          3
     1  C    1.075267  -0.244926  -0.012736
     2  O   -0.244926   0.480172  -0.000040
     3  H   -0.012736  -0.000040  -0.040034
 Mulliken charges and spin densities:
               1          2
     1  C    0.043453   0.817605
     2  O   -0.347717   0.235206
     3  H    0.304264  -0.052811
 Sum of Mulliken charges =   0.00000   1.00000
 Mulliken charges and spin densities with hydrogens summed into heavy atoms:
               1          2
     1  C    0.347717   0.764794
     2  O   -0.347717   0.235206
 Electronic spatial extent (au):  <R**2>=             52.0301
 Charge=              0.0000 electrons
 Dipole moment (field-independent basis, Debye):
    X=              0.0000    Y=              0.0000    Z=             -2.6218  Tot=              2.6218
 Quadrupole moment (field-independent basis, Debye-Ang):
   XX=            -12.1671   YY=            -10.5829   ZZ=             -8.5482
   XY=              0.0000   XZ=              0.0000   YZ=              0.0000
 Traceless Quadrupole moment (field-independent basis, Debye-Ang):
   XX=             -1.7344   YY=             -0.1502   ZZ=              1.8845
   XY=              0.0000   XZ=              0.0000   YZ=              0.0000
 Octapole moment (field-independent basis, Debye-Ang**2):
  XXX=              0.0000  YYY=              0.0000  ZZZ=             -4.3532  XYY=              0.0000
  XXY=              0.0000  XXZ=              1.3899  XZZ=              0.0000  YZZ=              0.0000
  YYZ=              0.5481  XYZ=              0.0000
 Hexadecapole moment (field-independent basis, Debye-Ang**3):
 XXXX=            -11.1250 YYYY=             -8.4319 ZZZZ=            -30.6021 XXXY=              0.0000
 XXXZ=              0.0000 YYYX=              0.0000 YYYZ=              0.0000 ZZZX=              0.0000
 ZZZY=              0.0000 XXYY=             -3.2595 XXZZ=             -9.6375 YYZZ=             -8.2823
 XXYZ=              0.0000 YYXZ=              0.0000 ZZXY=              0.0000
 N-N= 2.560431289047D+01 E-N=-3.182134782875D+02  KE= 1.126958941769D+02
 Symmetry A1   KE= 1.030957357205D+02
 Symmetry A2   KE= 1.201232782018D-35
 Symmetry B1   KE= 5.788256144197D+00
 Symmetry B2   KE= 3.811902312191D+00
                          Isotropic Fermi Contact Couplings
        Atom                 a.u.       MegaHertz       Gauss      10(-4) cm-1
     1  C(13)              0.06261      70.38183      25.11399      23.47685
     2  O(17)              0.05672     -34.38225     -12.26844     -11.46868
     3  H(1)              -0.01996     -89.22431     -31.83745     -29.76203
 --------------------------------------------------------
       Center         ----  Spin Dipole Couplings  ----
                      3XX-RR        3YY-RR        3ZZ-RR
 --------------------------------------------------------
     1   Atom        0.941712     -0.467453     -0.474259
     2   Atom        1.469718     -0.791634     -0.678084
     3   Atom       -0.003546     -0.067789      0.071335
 --------------------------------------------------------
                        XY            XZ            YZ
 --------------------------------------------------------
     1   Atom        0.000000      0.000000      0.000000
     2   Atom        0.000000      0.000000      0.000000
     3   Atom        0.000000      0.000000      0.000000
 --------------------------------------------------------


 ---------------------------------------------------------------------------------
              Anisotropic Spin Dipole Couplings in Principal Axis System
 ---------------------------------------------------------------------------------

       Atom             a.u.   MegaHertz   Gauss  10(-4) cm-1        Axes

              Baa    -0.4743   -63.641   -22.709   -21.228  0.0000  0.0000  1.0000
     1 C(13)  Bbb    -0.4675   -62.728   -22.383   -20.924 -0.0000  1.0000  0.0000
              Bcc     0.9417   126.369    45.091    42.152  1.0000  0.0000  0.0000
 
              Baa    -0.7916    57.282    20.440    19.107 -0.0000  1.0000  0.0000
     2 O(17)  Bbb    -0.6781    49.066    17.508    16.367  0.0000  0.0000  1.0000
              Bcc     1.4697  -106.348   -37.948   -35.474  1.0000  0.0000  0.0000
 
              Baa    -0.0678   -36.169   -12.906   -12.065 -0.0000  1.0000  0.0000
     3 H(1)   Bbb    -0.0035    -1.892    -0.675    -0.631  1.0000  0.0000  0.0000
              Bcc     0.0713    38.061    13.581    12.696  0.0000  0.0000  1.0000
 

 ---------------------------------------------------------------------------------

 No NMR shielding tensors so no spin-rotation constants.
 Leave Link  601 at Thu Oct 28 15:26:27 2021, MaxMem=  2684354560 cpu:         2.9
 (Enter /soft/gaussian/09-e.01/g09/l701.exe)
 Compute integral first derivatives.
 ... and contract with generalized density number  0.
 DipInt: DoE/N= T T RetVal/Mat= T F Init=T NMatP=  1 IDeriv=0 Min/MaxMlt=  1  1
 Entering OneElI...
 Multipole integrals L=1 to 1 MinM= 0 MaxM= 0.
 Requested accuracy = 0.1000D-12
 PrsmSu:  NPrtUS=   1 ThrOK=F IAlg=1 NPAlg=1 LenDen=           0.
 Prism:   IPart=     0 DynPar=F LinDyn=F Incr=           1.
 PRISM was handed  2684343591 working-precision words and    55 shell-pairs
 IPart=  0 NShTot=          55 NBatch=          23 AvBLen=         2.4
 PrSmSu:  NxtVal=              2.
 R6Disp: Adding Grimme-D2 dispersion energy 1st derivatives to the gradient.
 Entering OneElI...
 Calculate overlap and kinetic energy integrals
    NBasis =  32  MinDer = 1  MaxDer = 1
 Requested accuracy = 0.1000D-12
 PrsmSu:  NPrtUS=  10 ThrOK=T IAlg=1 NPAlg=1 LenDen=           0.
 Prism:   IPart=     0 DynPar=F LinDyn=F Incr=           1.
 PRISM was handed   268430866 working-precision words and    55 shell-pairs
 PRISM was handed   268430866 working-precision words and    55 shell-pairs
 PRISM was handed   268430866 working-precision words and    55 shell-pairs
 PRISM was handed   268430866 working-precision words and    55 shell-pairs
 PRISM was handed   268430866 working-precision words and    55 shell-pairs
 PRISM was handed   268430866 working-precision words and    55 shell-pairs
 PRISM was handed   268430866 working-precision words and    55 shell-pairs
 PRISM was handed   268430866 working-precision words and    55 shell-pairs
 PRISM was handed   268430866 working-precision words and    55 shell-pairs
 PRISM was handed   268430866 working-precision words and    55 shell-pairs
 IPart=  4 NShTot=           0 NBatch=           0 AvBLen=         0.0
 IPart=  8 NShTot=           0 NBatch=           0 AvBLen=         0.0
 IPart=  6 NShTot=           0 NBatch=           0 AvBLen=         0.0
 IPart=  7 NShTot=           0 NBatch=           0 AvBLen=         0.0
 IPart=  5 NShTot=           0 NBatch=           0 AvBLen=         0.0
 IPart=  9 NShTot=           0 NBatch=           0 AvBLen=         0.0
 IPart=  3 NShTot=           6 NBatch=           6 AvBLen=         1.0
 IPart=  1 NShTot=          15 NBatch=          15 AvBLen=         1.0
 IPart=  2 NShTot=          10 NBatch=          10 AvBLen=         1.0
 IPart=  0 NShTot=          24 NBatch=          24 AvBLen=         1.0
 PrSmSu:  NxtVal=             11.
 Entering OneElI...
 Calculate potential energy integrals
    NBasis =  32  MinDer = 1  MaxDer = 1
 Requested accuracy = 0.1000D-12
 PrsmSu:  NPrtUS=  10 ThrOK=T IAlg=1 NPAlg=1 LenDen=           0.
 Prism:   IPart=     0 DynPar=F LinDyn=F Incr=           1.
 PRISM was handed   268431135 working-precision words and    55 shell-pairs
 PRISM was handed   268431135 working-precision words and    55 shell-pairs
 PRISM was handed   268431135 working-precision words and    55 shell-pairs
 PRISM was handed   268431135 working-precision words and    55 shell-pairs
 PRISM was handed   268431135 working-precision words and    55 shell-pairs
 PRISM was handed   268431135 working-precision words and    55 shell-pairs
 PRISM was handed   268431135 working-precision words and    55 shell-pairs
 PRISM was handed   268431135 working-precision words and    55 shell-pairs
 PRISM was handed   268431135 working-precision words and    55 shell-pairs
 PRISM was handed   268431135 working-precision words and    55 shell-pairs
 IPart=  5 NShTot=           0 NBatch=           0 AvBLen=         0.0
 IPart=  3 NShTot=          18 NBatch=           6 AvBLen=         3.0
 IPart=  7 NShTot=           0 NBatch=           0 AvBLen=         0.0
 IPart=  1 NShTot=          51 NBatch=          17 AvBLen=         3.0
 IPart=  4 NShTot=           3 NBatch=           1 AvBLen=         3.0
 IPart=  8 NShTot=           0 NBatch=           0 AvBLen=         0.0
 IPart=  6 NShTot=           0 NBatch=           0 AvBLen=         0.0
 IPart=  0 NShTot=          63 NBatch=          21 AvBLen=         3.0
 IPart=  2 NShTot=          30 NBatch=          10 AvBLen=         3.0
 IPart=  9 NShTot=           0 NBatch=           0 AvBLen=         0.0
 PrSmSu:  NxtVal=             11.
 l701 out
 I=    0 X=   0.000000000000D+00 Y=   0.000000000000D+00 Z=  -1.031485172142D+00
 I=    1 X=   0.000000000000D+00 Y=   0.000000000000D+00 Z=  -9.970576781554D+00
 I=    2 X=   0.000000000000D+00 Y=   0.000000000000D+00 Z=   1.265703504087D+01
 I=    3 X=   0.000000000000D+00 Y=   0.000000000000D+00 Z=  -2.686458259314D+00
 Leave Link  701 at Thu Oct 28 15:26:27 2021, MaxMem=  2684354560 cpu:         1.5
 (Enter /soft/gaussian/09-e.01/g09/l702.exe)
 L702 exits ... SP integral derivatives will be done elsewhere.
 Leave Link  702 at Thu Oct 28 15:26:27 2021, MaxMem=  2684354560 cpu:         0.1
 (Enter /soft/gaussian/09-e.01/g09/l703.exe)
 Compute integral first derivatives, UseDBF=F ICtDFT=           0.
 Integral derivatives from FoFJK, PRISM(SPDF).
 ICntrl=      2127.
 Calling FoFJK, ICntrl=      2127 FMM=F ISym2X=1 I1Cent= 0 IOpClX= 1 NMat=1 NMatS=1 NMatT=0.
 FoFJK:  IHMeth= 1 ICntrl=    2127 DoSepK=T KAlg= 0 I1Cent=   0 FoldK=F
 IRaf=         1 NMat=   1 IRICut=       1 DoRegI=T DoRafI=F ISym2E= 1.
 FoFCou: FMM=F IPFlag=           0 FMFlag=      100000 FMFlg1=         800
         NFxFlg=           0 DoJE=F BraDBF=F KetDBF=F FulRan=T
         wScrn=  0.000000 ICntrl=    2527 IOpCl=  0 I1Cent=           0 NGrid=           0
         NMat0=    1 NMatS0=      1 NMatT0=    0 NMatD0=    1 NMtDS0=    0 NMtDT0=    0
 Petite list used in FoFCou.
 FoFCou:  KetSym=F NOpSet=  4 NOpAb=4 NOp=  4.
 FoFCou:  CnvScl= 1.00D+00 Thresh= 1.00D-10 IAcrcy=      10.
 PrismS was handed  2684342356 working-precision words and    55 shell-pairs
 FoFCou: LinMIO=F DoNuc=F BraDBF=F KetDBF=F HaveP=T PDBF=F HaveZ=T HaveW=F
         NIJTC =       6 NIJTAt=       0 NIJTCD=       0 NIJTT =       6
         IJTBeg=       1 IJTEnd=       6 KLTBeg=       1 KLTEnd=       6
         IPTBeg=       1 IPTEnd=       6 IPTBCv=       1 IPTECv=       6
         IZTBeg=       1 IZTEnd=       6 IZTBCv=       1 IZTECv=       6
         IWTBeg=       7 IWTEnd=       6 IWTBCv=       7 IWTECv=       6
         INTBeg=       1 INTEnd=       0 IFTBCv=       1 IFTECv=       6
 NCel replicated for PrismC:     1
 CoulSu:  IncDef=  1024 NBBP=           1540 NTPThr=   100 NPartT=   10 Incr=           1 LDynOK=F.
 CoulSu:  NPrtUS=  10 ThrOK=T IAlg=1 NPAlg=1 LenDen=           0 LWGrdD=           0 DoCopy=F.
 Enter PrismC: JobTyp=21 DoJE=F Cont=F.
 PrismC:  IPart=     0 DynPar=F LinDyn=F Incr=           1 UseFst=F UseS4=T IGathr=2.
 PrismC was handed   268431021 working-precision words and    55 shell-pairs
 Enter PrismC: JobTyp=21 DoJE=F Cont=F.
 PrismC was handed   268431021 working-precision words and    55 shell-pairs
 Enter PrismC: JobTyp=21 DoJE=F Cont=F.
 PrismC was handed   268431021 working-precision words and    55 shell-pairs
 Enter PrismC: JobTyp=21 DoJE=F Cont=F.
 PrismC was handed   268431021 working-precision words and    55 shell-pairs
 Enter PrismC: JobTyp=21 DoJE=F Cont=F.
 PrismC was handed   268431021 working-precision words and    55 shell-pairs
 Enter PrismC: JobTyp=21 DoJE=F Cont=F.
 PrismC was handed   268431021 working-precision words and    55 shell-pairs
 Enter PrismC: JobTyp=21 DoJE=F Cont=F.
 PrismC was handed   268431021 working-precision words and    55 shell-pairs
 Enter PrismC: JobTyp=21 DoJE=F Cont=F.
 PrismC was handed   268431021 working-precision words and    55 shell-pairs
 Enter PrismC: JobTyp=21 DoJE=F Cont=F.
 PrismC was handed   268431021 working-precision words and    55 shell-pairs
 Enter PrismC: JobTyp=21 DoJE=F Cont=F.
 PrismC was handed   268431021 working-precision words and    55 shell-pairs
 IPart=  9 NShTot=          55 NShNF=          55 NShFF=           0 NBatch=          50 AvBLen=         1.1
 IPart=  7 NShTot=          91 NShNF=          91 NShFF=           0 NBatch=          86 AvBLen=         1.1
 IPart=  8 NShTot=          65 NShNF=          65 NShFF=           0 NBatch=          60 AvBLen=         1.1
 IPart=  6 NShTot=          92 NShNF=          92 NShFF=           0 NBatch=          86 AvBLen=         1.1
 IPart=  2 NShTot=         211 NShNF=         211 NShFF=           0 NBatch=         191 AvBLen=         1.1
 IPart=  5 NShTot=         132 NShNF=         132 NShFF=           0 NBatch=         111 AvBLen=         1.2
 IPart=  4 NShTot=         145 NShNF=         145 NShFF=           0 NBatch=         121 AvBLen=         1.2
 IPart=  0 NShTot=         298 NShNF=         298 NShFF=           0 NBatch=         252 AvBLen=         1.2
 IPart=  3 NShTot=         191 NShNF=         191 NShFF=           0 NBatch=         172 AvBLen=         1.1
 IPart=  1 NShTot=         257 NShNF=         257 NShFF=           0 NBatch=         217 AvBLen=         1.2
 CoulSu:  NxtVal=             11.
 FoFCou: FMM=F IPFlag=           0 FMFlag=      100000 FMFlg1=         800
         NFxFlg=           0 DoJE=F BraDBF=F KetDBF=F FulRan=T
         wScrn=  0.000000 ICntrl=    2127 IOpCl=  1 I1Cent=           0 NGrid=           0
         NMat0=    1 NMatS0=      0 NMatT0=    1 NMatD0=    1 NMtDS0=    0 NMtDT0=    0
         CW=    0.222036    0.777964
         WU=    0.000000   12.500000
 Petite list used in FoFCou.
 FoFCou:  KetSym=F NOpSet=  4 NOpAb=4 NOp=  4.
 FoFCou:  CnvScl= 1.00D+00 Thresh= 1.00D-10 IAcrcy=      10.
 PrismS was handed  2684342322 working-precision words and    55 shell-pairs
 FoFCou: LinMIO=F DoNuc=F BraDBF=F KetDBF=F HaveP=T PDBF=F HaveZ=T HaveW=F
         NIJTC =       6 NIJTAt=       0 NIJTCD=       0 NIJTT =       6
         IJTBeg=       1 IJTEnd=       6 KLTBeg=       1 KLTEnd=       6
         IPTBeg=       1 IPTEnd=       6 IPTBCv=       1 IPTECv=       6
         IZTBeg=       1 IZTEnd=       6 IZTBCv=       1 IZTECv=       6
         IWTBeg=       7 IWTEnd=       6 IWTBCv=       7 IWTECv=       6
         INTBeg=       1 INTEnd=       0 IFTBCv=       1 IFTECv=       6
 NCel replicated for PrismC:     1
 CoulSu:  IncDef=  1024 NBBP=           1540 NTPThr=   100 NPartT=   10 Incr=           1 LDynOK=F.
 CoulSu:  NPrtUS=  10 ThrOK=T IAlg=1 NPAlg=1 LenDen=           0 LWGrdD=           0 DoCopy=F.
 Enter PrismC: JobTyp=21 DoJE=F Cont=F.
 Enter PrismC: JobTyp=21 DoJE=F Cont=F.
 Enter PrismC: JobTyp=21 DoJE=F Cont=F.
 Enter PrismC: JobTyp=21 DoJE=F Cont=F.
 Enter PrismC: JobTyp=21 DoJE=F Cont=F.
 Enter PrismC: JobTyp=21 DoJE=F Cont=F.
 Enter PrismC: JobTyp=21 DoJE=F Cont=F.
 Linear combination for Coulomb/exchange, wScrn=  0.000000
 CW=    0.222036    0.777964
 WU=    0.000000   12.500000
 Linear combination for Coulomb/exchange, wScrn=  0.000000
 CW=    0.222036    0.777964
 WU=    0.000000   12.500000
 Linear combination for Coulomb/exchange, wScrn=  0.000000
 CW=    0.222036    0.777964
 WU=    0.000000   12.500000
 PrismC was handed   268431018 working-precision words and    55 shell-pairs
 PrismC was handed   268431018 working-precision words and    55 shell-pairs
 Enter PrismC: JobTyp=21 DoJE=F Cont=F.
 Linear combination for Coulomb/exchange, wScrn=  0.000000
 CW=    0.222036    0.777964
 WU=    0.000000   12.500000
 Linear combination for Coulomb/exchange, wScrn=  0.000000
 CW=    0.222036    0.777964
 WU=    0.000000   12.500000
 PrismC was handed   268431018 working-precision words and    55 shell-pairs
 PrismC was handed   268431018 working-precision words and    55 shell-pairs
 Linear combination for Coulomb/exchange, wScrn=  0.000000
 CW=    0.222036    0.777964
 WU=    0.000000   12.500000
 PrismC was handed   268431018 working-precision words and    55 shell-pairs
 Enter PrismC: JobTyp=21 DoJE=F Cont=F.
 Enter PrismC: JobTyp=21 DoJE=F Cont=F.
 Linear combination for Coulomb/exchange, wScrn=  0.000000
 CW=    0.222036    0.777964
 WU=    0.000000   12.500000
 Linear combination for Coulomb/exchange, wScrn=  0.000000
 CW=    0.222036    0.777964
 WU=    0.000000   12.500000
 PrismC was handed   268431018 working-precision words and    55 shell-pairs
 PrismC:  IPart=     0 DynPar=F LinDyn=F Incr=           1 UseFst=F UseS4=T IGathr=2.
 PrismC was handed   268431018 working-precision words and    55 shell-pairs
 Linear combination for Coulomb/exchange, wScrn=  0.000000
 CW=    0.222036    0.777964
 WU=    0.000000   12.500000
 PrismC was handed   268431018 working-precision words and    55 shell-pairs
 Linear combination for Coulomb/exchange, wScrn=  0.000000
 CW=    0.222036    0.777964
 WU=    0.000000   12.500000
 PrismC was handed   268431018 working-precision words and    55 shell-pairs
 PrismC was handed   268431018 working-precision words and    55 shell-pairs
 IPart=  9 NShTot=          55 NShNF=          55 NShFF=           0 NBatch=          50 AvBLen=         1.1
 IPart=  7 NShTot=          91 NShNF=          91 NShFF=           0 NBatch=          86 AvBLen=         1.1
 IPart=  8 NShTot=          65 NShNF=          65 NShFF=           0 NBatch=          60 AvBLen=         1.1
 IPart=  6 NShTot=          92 NShNF=          92 NShFF=           0 NBatch=          86 AvBLen=         1.1
 IPart=  5 NShTot=         132 NShNF=         132 NShFF=           0 NBatch=         111 AvBLen=         1.2
 IPart=  1 NShTot=         257 NShNF=         257 NShFF=           0 NBatch=         217 AvBLen=         1.2
 IPart=  4 NShTot=         145 NShNF=         145 NShFF=           0 NBatch=         121 AvBLen=         1.2
 IPart=  3 NShTot=         191 NShNF=         191 NShFF=           0 NBatch=         172 AvBLen=         1.1
 IPart=  2 NShTot=         211 NShNF=         211 NShFF=           0 NBatch=         191 AvBLen=         1.1
 IPart=  0 NShTot=         298 NShNF=         298 NShFF=           0 NBatch=         252 AvBLen=         1.2
 CoulSu:  NxtVal=             11.
 ReadGW:  IGet=0 IStart=           1 Next=           1 LGW=           0.
 Remaining memory in FofDFT     2560.00 Mw
 CkSvGd:  ISavGI=        -1 IRadAn=       5 IRASav=       5 ISavGd=        -1.
 CalDSu:  NPrtUS=  10 ThrOK=T IAlg=1 NPAlg=2 DoDPD=T LenP=         528 LenD1P=             0.
 IPart=  0 IRanGd=          0 ScrnBf=T ScrnGd=T RCrit=4.00D+00 DoMicB=T.
 IPart=  0         1569 of         1660 points in       7 batches and       21 microbatches, Max-NSigAt=       3 Max-NSgAt2=       3
 IPart=  4         1793 of         1862 points in       6 batches and       13 microbatches, Max-NSigAt=       3 Max-NSgAt2=       3
 IPart=  6         1579 of         1650 points in       7 batches and       21 microbatches, Max-NSigAt=       3 Max-NSgAt2=       3
 IPart=  8         1701 of         1733 points in       5 batches and       11 microbatches, Max-NSigAt=       3 Max-NSgAt2=       3
 IPart=  1         1558 of         1640 points in       6 batches and       15 microbatches, Max-NSigAt=       3 Max-NSgAt2=       3
 IPart=  7         1728 of         1776 points in       5 batches and       13 microbatches, Max-NSigAt=       3 Max-NSgAt2=       3
 IPart=  5         1770 of         1832 points in       5 batches and       11 microbatches, Max-NSigAt=       3 Max-NSgAt2=       3
 IPart=  9         1974 of         2057 points in       6 batches and       17 microbatches, Max-NSigAt=       3 Max-NSgAt2=       3
 IPart=  3         2116 of         2156 points in       5 batches and        9 microbatches, Max-NSigAt=       3 Max-NSgAt2=       3
 IPart=  2         1994 of         2078 points in       6 batches and       11 microbatches, Max-NSigAt=       3 Max-NSgAt2=       3
 Forces at end of L703
 I=    0 X=   0.000000000000D+00 Y=   0.000000000000D+00 Z=  -1.031485172142D+00
 I=    1 X=   0.000000000000D+00 Y=   0.000000000000D+00 Z=  -3.780095079630D-02
 I=    2 X=   0.000000000000D+00 Y=   0.000000000000D+00 Z=   4.990217937503D-02
 I=    3 X=   0.000000000000D+00 Y=   0.000000000000D+00 Z=  -1.210122857871D-02
 Leave Link  703 at Thu Oct 28 15:26:28 2021, MaxMem=  2684354560 cpu:         3.2
 (Enter /soft/gaussian/09-e.01/g09/l716.exe)
 FrcOut:
 IF    =    74 IFX   =    83 IFXYZ =    92
 IFFX  =   101 IFFFX =   101 IFLen =     9
 IFFLen=     0 IFFFLn=     0 IEDerv=   101
 LEDerv=   485 IFroze=   713 ICStrt=  2867
 Dipole        = 0.00000000D+00 0.00000000D+00-1.03148517D+00
 Quadrupole    =-1.28946124D+00-1.11650891D-01 1.40111213D+00
                 0.00000000D+00 0.00000000D+00 0.00000000D+00
 Forces in standard orientation:
 -------------------------------------------------------------------
 Center     Atomic                   Forces (Hartrees/Bohr)
 Number     Number              X              Y              Z
 -------------------------------------------------------------------
      1        6           0.000000000    0.000000000   -0.037800951
      2        8           0.000000000    0.000000000    0.049902179
      3        1           0.000000000    0.000000000   -0.012101229
 -------------------------------------------------------------------
 ***** Axes restored to original set *****
 Rotating derivatives, DoTrsp=F IDiff=-1 LEDeriv=    484 LFDPrp=       0 LDFDPr=       0.
 -------------------------------------------------------------------
 Center     Atomic                   Forces (Hartrees/Bohr)
 Number     Number              X              Y              Z
 -------------------------------------------------------------------
      1        6           0.037800951   -0.000000000   -0.000000000
      2        8          -0.049902179   -0.000000000   -0.000000000
      3        1           0.012101229   -0.000000000   -0.000000000
 -------------------------------------------------------------------
 Cartesian Forces:  Max     0.049902179 RMS     0.021253965
 Final forces over variables, Energy=-1.13763398D+02:
  0.00000000D+00 0.00000000D+00 0.00000000D+00 0.00000000D+00
 Leave Link  716 at Thu Oct 28 15:26:28 2021, MaxMem=  2684354560 cpu:         0.3
 (Enter /soft/gaussian/09-e.01/g09/l103.exe)

 GradGradGradGradGradGradGradGradGradGradGradGradGradGradGradGradGradGrad
 Berny optimization.
 FormGI is forming the generalized inverse of G from B-inverse, IUseBI=4.
 Internal  Forces:  Max     0.049902179 RMS     0.025674244
 Search for a local minimum.
 Step number   1 out of a maximum of   20
 All quantities printed in internal units (Hartrees-Bohrs-Radians)
 RMS Force = .25674D-01 SwitMx=.10000D-02 MixMth= 1
 Mixed Optimization -- RFO/linear search
 Second derivative matrix not updated -- first step.
 The second derivative matrix:
                          R1        R2        A1        A2
           R1           0.95828
           R2           0.00000   0.35515
           A1           0.00000   0.00000   0.00314
           A2           0.00000   0.00000   0.00000   0.00314
 ITU=  0
     Eigenvalues ---    0.00314   0.00314   0.35515   0.95828
 RFO step:  Lambda=-2.99941791D-03 EMin= 3.14198557D-03
 Linear search not attempted -- first point.
 Iteration  1 RMS(Cart)=  0.03052467 RMS(Int)=  0.00000000
 Iteration  2 RMS(Cart)=  0.00000000 RMS(Int)=  0.00000000
 ITry= 1 IFail=0 DXMaxC= 4.59D-02 DCOld= 1.00D+10 DXMaxT= 3.00D-01 DXLimC= 3.00D+00 Rises=F
 ClnCor:  largest displacement from symmetrization is 1.73D-17 for atom     1.
 Variable       Old X    -DE/DX   Delta X   Delta X   Delta X     New X
                                 (Linear)    (Quad)   (Total)
    R1        2.30358  -0.04990   0.00000  -0.05191  -0.05191   2.25166
    R2        2.04846  -0.01210   0.00000  -0.03379  -0.03379   2.01468
    A1        3.14159  -0.00000   0.00000   0.00000   0.00000   3.14159
    A2        3.14159  -0.00000   0.00000   0.00000   0.00000   3.14159
         Item               Value     Threshold  Converged?
 Maximum Force            0.049902     0.000450     NO 
 RMS     Force            0.025674     0.000300     NO 
 Maximum Displacement     0.045871     0.001800     NO 
 RMS     Displacement     0.030525     0.001200     NO 
 Predicted change in Energy=-1.505463D-03
 Lowest energy point so far.  Saving SCF results.
 GradGradGradGradGradGradGradGradGradGradGradGradGradGradGradGradGradGrad

 Leave Link  103 at Thu Oct 28 15:26:28 2021, MaxMem=  2684354560 cpu:         0.1
 (Enter /soft/gaussian/09-e.01/g09/l202.exe)
                          Input orientation:                          
 ---------------------------------------------------------------------
 Center     Atomic      Atomic             Coordinates (Angstroms)
 Number     Number       Type             X           Y           Z
 ---------------------------------------------------------------------
      1          6           0        0.003197    0.000000    0.000000
      2          8           0        1.194726    0.000000    0.000000
      3          1           0       -1.062923    0.000000    0.000000
 ---------------------------------------------------------------------
                    Distance matrix (angstroms):
                    1          2          3
     1  C    0.000000
     2  O    1.191529   0.000000
     3  H    1.066120   2.257649   0.000000
 Stoichiometry    CHO(2)
 Framework group  C*V[C*(HCO)]
 Deg. of freedom     2
 Full point group                 C*V     NOp   4
 RotChk:  IX=0 Diff= 0.00D+00
 Largest Abelian subgroup         C2V     NOp   4
 Largest concise Abelian subgroup C1      NOp   1
                         Standard orientation:                         
 ---------------------------------------------------------------------
 Center     Atomic      Atomic             Coordinates (Angstroms)
 Number     Number       Type             X           Y           Z
 ---------------------------------------------------------------------
      1          6           0        0.000000    0.000000   -0.564408
      2          8           0        0.000000    0.000000    0.627122
      3          1           0        0.000000    0.000000   -1.630528
 ---------------------------------------------------------------------
 Rotational constants (GHZ):      0.0000000     39.7851157     39.7851157
 Leave Link  202 at Thu Oct 28 15:26:28 2021, MaxMem=  2684354560 cpu:         0.1
 (Enter /soft/gaussian/09-e.01/g09/l301.exe)
 Standard basis: 6-31G(d) (6D, 7F)
 Ernie: Thresh=  0.10000D-02 Tol=  0.10000D-05 Strict=F.
 There are    18 symmetry adapted cartesian basis functions of A1  symmetry.
 There are     2 symmetry adapted cartesian basis functions of A2  symmetry.
 There are     6 symmetry adapted cartesian basis functions of B1  symmetry.
 There are     6 symmetry adapted cartesian basis functions of B2  symmetry.
 There are    18 symmetry adapted basis functions of A1  symmetry.
 There are     2 symmetry adapted basis functions of A2  symmetry.
 There are     6 symmetry adapted basis functions of B1  symmetry.
 There are     6 symmetry adapted basis functions of B2  symmetry.
    32 basis functions,    60 primitive gaussians,    32 cartesian basis functions
     8 alpha electrons        7 beta electrons
       nuclear repulsion energy        26.1708617784 Hartrees.
 IExCor= 4639 DFT=T Ex+Corr=wB97XD ExCW=0 ScaHFX=  1.000000
 ScaDFX=  1.000000  1.000000  1.000000  1.000000 ScalE2=  1.000000  1.000000
 IRadAn=      5 IRanWt=     -1 IRanGd=            0 ICorTp=0 IEmpDi=121
  HFx wShort=  0.000000 wLong=  0.200000 cFull=  0.222036 cShort=  0.000000 cLong=  0.777964
  DFx wShort=  0.000000 wLong=  0.200000 cFull=  0.000000 cShort=  0.000000 cLong=  1.000000
 NAtoms=    3 NActive=    3 NUniq=    3 SFac= 1.00D+00 NAtFMM=   60 NAOKFM=F Big=F
 Integral buffers will be    131072 words long.
 Raffenetti 2 integral format.
 Two-electron integral symmetry is turned on.
 R6Disp:  Grimme-D2 Dispersion energy=       -0.0000887291 Hartrees.
 Nuclear repulsion after empirical dispersion term =       26.1707730493 Hartrees.
 Leave Link  301 at Thu Oct 28 15:26:28 2021, MaxMem=  2684354560 cpu:         0.4
 (Enter /soft/gaussian/09-e.01/g09/l302.exe)
 NPDir=0 NMtPBC=     1 NCelOv=     1 NCel=       1 NClECP=     1 NCelD=      1
         NCelK=      1 NCelE2=     1 NClLst=     1 CellRange=     0.0.
 One-electron integrals computed using PRISM.
 NBasis=    32 RedAO= T EigKep=  1.00D-02  NBF=    18     2     6     6
 NBsUse=    32 1.00D-06 EigRej= -1.00D+00 NBFU=    18     2     6     6
 Precomputing XC quadrature grid using
 IXCGrd= 4 IRadAn=           5 IRanWt=          -1 IRanGd=           0 AccXCQ= 0.00D+00.
 Generated NRdTot=       0 NPtTot=           0 NUsed=           0 NTot=          32
 NSgBfM=    32    32    32    32    32 MxSgAt=     3 MxSgA2=     3.
 Leave Link  302 at Thu Oct 28 15:26:28 2021, MaxMem=  2684354560 cpu:         1.4
 (Enter /soft/gaussian/09-e.01/g09/l303.exe)
 DipDrv:  MaxL=1.
 Leave Link  303 at Thu Oct 28 15:26:28 2021, MaxMem=  2684354560 cpu:         0.2
 (Enter /soft/gaussian/09-e.01/g09/l401.exe)
 Initial guess from the checkpoint file:  "/scratch/kmoore/Gau-4079.chk"
 B after Tr=     0.000000    0.000000   -0.000000
         Rot=    1.000000    0.000000    0.000000    0.000000 Ang=   0.00 deg.
 Guess basis will be translated and rotated to current coordinates.
 JPrj=2 DoOrth=T DoCkMO=T.
 Initial guess orbital symmetries:
 Alpha Orbitals:
       Occupied  (SG) (SG) (SG) (SG) (SG) (PI) (PI) (?A)
       Virtual   (SG) (SG) (SG) (SG) (SG) (SG) (DLTA) (?B) (?B)
                 (SG) (SG) (SG) (SG) (DLTA) (?B) (?A) (?A) (?A)
                 (?A) (?A) (?A) (?A) (?A) (?A)
 Beta  Orbitals:
       Occupied  (SG) (SG) (SG) (SG) (SG) (PI) (PI)
       Virtual   (?A) (?A) (?A) (?A) (SG) (SG) (?A) (?A) (?A) (SG)
                 (SG) (SG) (SG) (?A) (?A) (PI) (PI) (PI) (PI) (PI)
                 (PI) (PI) (PI) (PI) (PI)
 Initial guess <Sx>= 0.0000 <Sy>= 0.0000 <Sz>= 0.5000 <S**2>= 0.7541 S= 0.5021
 Generating alternative initial guess.
 ExpMin= 1.61D-01 ExpMax= 5.48D+03 ExpMxC= 8.25D+02 IAcc=2 IRadAn=         4 AccDes= 0.00D+00
 Harris functional with IExCor= 4639 and IRadAn=       4 diagonalized for initial guess.
 HarFok:  IExCor= 4639 AccDes= 0.00D+00 IRadAn=         4 IDoV= 1 UseB2=F ITyADJ=14
 ICtDFT=  3500011 ScaDFX=  1.000000  1.000000  1.000000  1.000000
 FoFCou: FMM=F IPFlag=           0 FMFlag=      100000 FMFlg1=           0
         NFxFlg=           0 DoJE=T BraDBF=F KetDBF=T FulRan=T
         wScrn=  0.000000 ICntrl=     500 IOpCl=  0 I1Cent=   200000004 NGrid=           0
         NMat0=    1 NMatS0=      1 NMatT0=    0 NMatD0=    1 NMtDS0=    0 NMtDT0=    0
 Petite list used in FoFCou.
 Harris En= -109.468297893977    
 Leave Link  401 at Thu Oct 28 15:26:28 2021, MaxMem=  2684354560 cpu:         1.7
 (Enter /soft/gaussian/09-e.01/g09/l502.exe)
 UHF open shell SCF:
 Using DIIS extrapolation, IDIIS=  1040.
 Integral symmetry usage will be decided dynamically.
 Keep R1 and R2 ints in memory in symmetry-blocked form, NReq=1153576.
 IVT=        9616 IEndB=        9616 NGot=  2684354560 MDV=  2684261601
 LenX=  2684261601 LenY=  2684260136
 Requested convergence on RMS density matrix=1.00D-08 within  64 cycles.
 Requested convergence on MAX density matrix=1.00D-06.
 Requested convergence on             energy=1.00D-06.
 No special actions if energy rises.
 FoFCou: FMM=F IPFlag=           0 FMFlag=           0 FMFlg1=           0
         NFxFlg=           0 DoJE=F BraDBF=F KetDBF=F FulRan=T
         wScrn=  0.000000 ICntrl=     600 IOpCl=  0 I1Cent=           0 NGrid=           0
         NMat0=    1 NMatS0=    528 NMatT0=    0 NMatD0=    1 NMtDS0=    0 NMtDT0=    0
 Petite list used in FoFCou.
 Integral accuracy reduced to 1.0D-05 until final iterations.

 Cycle   1  Pass 0  IDiag  1:
 E= -113.764416097683    
 DIIS: error= 2.82D-03 at cycle   1 NSaved=   1.
 NSaved= 1 IEnMin= 1 EnMin= -113.764416097683     IErMin= 1 ErrMin= 2.82D-03
 ErrMax= 2.82D-03  0.00D+00 EMaxC= 1.00D-01 BMatC= 1.65D-03 BMatP= 1.65D-03
 IDIUse=3 WtCom= 9.72D-01 WtEn= 2.82D-02
 Coeff-Com:  0.100D+01
 Coeff-En:   0.100D+01
 Coeff:      0.100D+01
 Gap=     1.136 Goal=   None    Shift=    0.000
 Gap=     1.317 Goal=   None    Shift=    0.000
 GapD=    1.136 DampG=2.000 DampE=1.000 DampFc=2.0000 IDamp=-1.
 RMSDP=7.48D-04 MaxDP=6.55D-03              OVMax= 7.88D-03

 Cycle   2  Pass 0  IDiag  1:
 E= -113.764896113547     Delta-E=       -0.000480015864 Rises=F Damp=F
 DIIS: error= 1.67D-03 at cycle   2 NSaved=   2.
 NSaved= 2 IEnMin= 2 EnMin= -113.764896113547     IErMin= 2 ErrMin= 1.67D-03
 ErrMax= 1.67D-03  0.00D+00 EMaxC= 1.00D-01 BMatC= 2.42D-04 BMatP= 1.65D-03
 IDIUse=3 WtCom= 9.83D-01 WtEn= 1.67D-02
 Coeff-Com:  0.178D+00 0.822D+00
 Coeff-En:   0.000D+00 0.100D+01
 Coeff:      0.175D+00 0.825D+00
 Gap=     0.258 Goal=   None    Shift=    0.000
 Gap=     0.516 Goal=   None    Shift=    0.000
 RMSDP=3.24D-04 MaxDP=4.63D-03 DE=-4.80D-04 OVMax= 3.58D-03

 Cycle   3  Pass 0  IDiag  1:
 E= -113.764933689926     Delta-E=       -0.000037576379 Rises=F Damp=F
 DIIS: error= 1.02D-03 at cycle   3 NSaved=   3.
 NSaved= 3 IEnMin= 3 EnMin= -113.764933689926     IErMin= 3 ErrMin= 1.02D-03
 ErrMax= 1.02D-03  0.00D+00 EMaxC= 1.00D-01 BMatC= 1.17D-04 BMatP= 2.42D-04
 IDIUse=3 WtCom= 9.90D-01 WtEn= 1.02D-02
 Coeff-Com: -0.179D-01 0.391D+00 0.627D+00
 Coeff-En:   0.000D+00 0.109D+00 0.891D+00
 Coeff:     -0.177D-01 0.388D+00 0.630D+00
 Gap=     0.258 Goal=   None    Shift=    0.000
 Gap=     0.517 Goal=   None    Shift=    0.000
 RMSDP=1.39D-04 MaxDP=1.64D-03 DE=-3.76D-05 OVMax= 2.33D-03

 Cycle   4  Pass 0  IDiag  1:
 E= -113.764952440946     Delta-E=       -0.000018751020 Rises=F Damp=F
 DIIS: error= 5.68D-04 at cycle   4 NSaved=   4.
 NSaved= 4 IEnMin= 4 EnMin= -113.764952440946     IErMin= 4 ErrMin= 5.68D-04
 ErrMax= 5.68D-04  0.00D+00 EMaxC= 1.00D-01 BMatC= 1.99D-05 BMatP= 1.17D-04
 IDIUse=3 WtCom= 9.94D-01 WtEn= 5.68D-03
 Coeff-Com: -0.365D-01 0.606D-01 0.332D+00 0.644D+00
 Coeff-En:   0.000D+00 0.000D+00 0.696D-01 0.930D+00
 Coeff:     -0.363D-01 0.603D-01 0.330D+00 0.646D+00
 Gap=     0.258 Goal=   None    Shift=    0.000
 Gap=     0.517 Goal=   None    Shift=    0.000
 RMSDP=5.01D-05 MaxDP=5.19D-04 DE=-1.88D-05 OVMax= 1.07D-03

 Cycle   5  Pass 0  IDiag  1:
 E= -113.764957027995     Delta-E=       -0.000004587049 Rises=F Damp=F
 DIIS: error= 8.71D-05 at cycle   5 NSaved=   5.
 NSaved= 5 IEnMin= 5 EnMin= -113.764957027995     IErMin= 5 ErrMin= 8.71D-05
 ErrMax= 8.71D-05  0.00D+00 EMaxC= 1.00D-01 BMatC= 4.41D-07 BMatP= 1.99D-05
 IDIUse=1 WtCom= 1.00D+00 WtEn= 0.00D+00
 Coeff-Com:  0.693D-02-0.358D-01-0.114D+00-0.691D-01 0.121D+01
 Coeff:      0.693D-02-0.358D-01-0.114D+00-0.691D-01 0.121D+01
 Gap=     0.258 Goal=   None    Shift=    0.000
 Gap=     0.517 Goal=   None    Shift=    0.000
 RMSDP=2.47D-05 MaxDP=4.36D-04 DE=-4.59D-06 OVMax= 3.21D-04

 Cycle   6  Pass 0  IDiag  1:
 E= -113.764957359534     Delta-E=       -0.000000331539 Rises=F Damp=F
 DIIS: error= 5.20D-05 at cycle   6 NSaved=   6.
 NSaved= 6 IEnMin= 6 EnMin= -113.764957359534     IErMin= 6 ErrMin= 5.20D-05
 ErrMax= 5.20D-05  0.00D+00 EMaxC= 1.00D-01 BMatC= 6.41D-08 BMatP= 4.41D-07
 IDIUse=1 WtCom= 1.00D+00 WtEn= 0.00D+00
 Coeff-Com: -0.934D-03 0.138D-01 0.240D-01 0.931D-02-0.599D+00 0.155D+01
 Coeff:     -0.934D-03 0.138D-01 0.240D-01 0.931D-02-0.599D+00 0.155D+01
 Gap=     0.258 Goal=   None    Shift=    0.000
 Gap=     0.517 Goal=   None    Shift=    0.000
 RMSDP=1.02D-05 MaxDP=1.63D-04 DE=-3.32D-07 OVMax= 2.92D-04

 Cycle   7  Pass 0  IDiag  1:
 E= -113.764957449245     Delta-E=       -0.000000089711 Rises=F Damp=F
 DIIS: error= 2.07D-05 at cycle   7 NSaved=   7.
 NSaved= 7 IEnMin= 7 EnMin= -113.764957449245     IErMin= 7 ErrMin= 2.07D-05
 ErrMax= 2.07D-05  0.00D+00 EMaxC= 1.00D-01 BMatC= 1.24D-08 BMatP= 6.41D-08
 IDIUse=1 WtCom= 1.00D+00 WtEn= 0.00D+00
 Coeff-Com: -0.903D-03-0.448D-04 0.135D-01 0.427D-02 0.596D-01-0.799D+00
 Coeff-Com:  0.172D+01
 Coeff:     -0.903D-03-0.448D-04 0.135D-01 0.427D-02 0.596D-01-0.799D+00
 Coeff:      0.172D+01
 Gap=     0.258 Goal=   None    Shift=    0.000
 Gap=     0.516 Goal=   None    Shift=    0.000
 RMSDP=6.63D-06 MaxDP=1.17D-04 DE=-8.97D-08 OVMax= 2.15D-04

 Initial convergence to 1.0D-05 achieved.  Increase integral accuracy.
 Cycle   8  Pass 1  IDiag  1:
 E= -113.764970089956     Delta-E=       -0.000012640711 Rises=F Damp=F
 DIIS: error= 2.62D-05 at cycle   1 NSaved=   1.
 NSaved= 1 IEnMin= 1 EnMin= -113.764970089956     IErMin= 1 ErrMin= 2.62D-05
 ErrMax= 2.62D-05  0.00D+00 EMaxC= 1.00D-01 BMatC= 1.06D-07 BMatP= 1.06D-07
 IDIUse=1 WtCom= 1.00D+00 WtEn= 0.00D+00
 Coeff-Com:  0.100D+01
 Coeff:      0.100D+01
 Gap=     0.258 Goal=   None    Shift=    0.000
 Gap=     0.516 Goal=   None    Shift=    0.000
 RMSDP=6.63D-06 MaxDP=1.17D-04 DE=-1.26D-05 OVMax= 5.42D-05

 Cycle   9  Pass 1  IDiag  1:
 E= -113.764970106703     Delta-E=       -0.000000016748 Rises=F Damp=F
 DIIS: error= 8.85D-06 at cycle   2 NSaved=   2.
 NSaved= 2 IEnMin= 2 EnMin= -113.764970106703     IErMin= 2 ErrMin= 8.85D-06
 ErrMax= 8.85D-06  0.00D+00 EMaxC= 1.00D-01 BMatC= 4.65D-09 BMatP= 1.06D-07
 IDIUse=1 WtCom= 1.00D+00 WtEn= 0.00D+00
 Coeff-Com:  0.295D-01 0.970D+00
 Coeff:      0.295D-01 0.970D+00
 Gap=     0.258 Goal=   None    Shift=    0.000
 Gap=     0.516 Goal=   None    Shift=    0.000
 RMSDP=1.53D-06 MaxDP=2.05D-05 DE=-1.67D-08 OVMax= 3.13D-05

 Cycle  10  Pass 1  IDiag  1:
 E= -113.764970107876     Delta-E=       -0.000000001172 Rises=F Damp=F
 DIIS: error= 1.02D-05 at cycle   3 NSaved=   3.
 NSaved= 3 IEnMin= 3 EnMin= -113.764970107876     IErMin= 2 ErrMin= 8.85D-06
 ErrMax= 1.02D-05  0.00D+00 EMaxC= 1.00D-01 BMatC= 3.35D-09 BMatP= 4.65D-09
 IDIUse=1 WtCom= 1.00D+00 WtEn= 0.00D+00
 Coeff-Com: -0.233D-01 0.452D+00 0.571D+00
 Coeff:     -0.233D-01 0.452D+00 0.571D+00
 Gap=     0.258 Goal=   None    Shift=    0.000
 Gap=     0.516 Goal=   None    Shift=    0.000
 RMSDP=7.06D-07 MaxDP=1.31D-05 DE=-1.17D-09 OVMax= 2.26D-05

 Cycle  11  Pass 1  IDiag  1:
 E= -113.764970108693     Delta-E=       -0.000000000817 Rises=F Damp=F
 DIIS: error= 5.09D-06 at cycle   4 NSaved=   4.
 NSaved= 4 IEnMin= 4 EnMin= -113.764970108693     IErMin= 4 ErrMin= 5.09D-06
 ErrMax= 5.09D-06  0.00D+00 EMaxC= 1.00D-01 BMatC= 7.87D-10 BMatP= 3.35D-09
 IDIUse=1 WtCom= 1.00D+00 WtEn= 0.00D+00
 Coeff-Com: -0.157D-01 0.500D-01 0.308D+00 0.657D+00
 Coeff:     -0.157D-01 0.500D-01 0.308D+00 0.657D+00
 Gap=     0.258 Goal=   None    Shift=    0.000
 Gap=     0.516 Goal=   None    Shift=    0.000
 RMSDP=3.79D-07 MaxDP=7.68D-06 DE=-8.17D-10 OVMax= 1.23D-05

 Cycle  12  Pass 1  IDiag  1:
 E= -113.764970109028     Delta-E=       -0.000000000335 Rises=F Damp=F
 DIIS: error= 2.35D-06 at cycle   5 NSaved=   5.
 NSaved= 5 IEnMin= 5 EnMin= -113.764970109028     IErMin= 5 ErrMin= 2.35D-06
 ErrMax= 2.35D-06  0.00D+00 EMaxC= 1.00D-01 BMatC= 1.33D-10 BMatP= 7.87D-10
 IDIUse=1 WtCom= 1.00D+00 WtEn= 0.00D+00
 Coeff-Com:  0.132D-01-0.206D+00-0.266D+00-0.233D+00 0.169D+01
 Coeff:      0.132D-01-0.206D+00-0.266D+00-0.233D+00 0.169D+01
 Gap=     0.258 Goal=   None    Shift=    0.000
 Gap=     0.516 Goal=   None    Shift=    0.000
 RMSDP=6.25D-07 MaxDP=1.08D-05 DE=-3.35D-10 OVMax= 1.96D-05

 Cycle  13  Pass 1  IDiag  1:
 E= -113.764970109310     Delta-E=       -0.000000000282 Rises=F Damp=F
 DIIS: error= 1.14D-06 at cycle   6 NSaved=   6.
 NSaved= 6 IEnMin= 6 EnMin= -113.764970109310     IErMin= 6 ErrMin= 1.14D-06
 ErrMax= 1.14D-06  0.00D+00 EMaxC= 1.00D-01 BMatC= 3.04D-11 BMatP= 1.33D-10
 IDIUse=1 WtCom= 1.00D+00 WtEn= 0.00D+00
 Coeff-Com: -0.185D-02 0.790D-01 0.209D-02 0.805D-01-0.847D+00 0.169D+01
 Coeff:     -0.185D-02 0.790D-01 0.209D-02 0.805D-01-0.847D+00 0.169D+01
 Gap=     0.258 Goal=   None    Shift=    0.000
 Gap=     0.516 Goal=   None    Shift=    0.000
 RMSDP=3.30D-07 MaxDP=5.93D-06 DE=-2.82D-10 OVMax= 1.06D-05

 Cycle  14  Pass 1  IDiag  1:
 E= -113.764970109363     Delta-E=       -0.000000000053 Rises=F Damp=F
 DIIS: error= 2.07D-07 at cycle   7 NSaved=   7.
 NSaved= 7 IEnMin= 7 EnMin= -113.764970109363     IErMin= 7 ErrMin= 2.07D-07
 ErrMax= 2.07D-07  0.00D+00 EMaxC= 1.00D-01 BMatC= 1.63D-12 BMatP= 3.04D-11
 IDIUse=1 WtCom= 1.00D+00 WtEn= 0.00D+00
 Coeff-Com: -0.741D-03 0.313D-02 0.250D-01 0.333D-02 0.365D-01-0.442D+00
 Coeff-Com:  0.137D+01
 Coeff:     -0.741D-03 0.313D-02 0.250D-01 0.333D-02 0.365D-01-0.442D+00
 Coeff:      0.137D+01
 Gap=     0.258 Goal=   None    Shift=    0.000
 Gap=     0.516 Goal=   None    Shift=    0.000
 RMSDP=7.56D-08 MaxDP=1.15D-06 DE=-5.25D-11 OVMax= 2.04D-06

 Cycle  15  Pass 1  IDiag  1:
 E= -113.764970109365     Delta-E=       -0.000000000003 Rises=F Damp=F
 DIIS: error= 6.88D-08 at cycle   8 NSaved=   8.
 NSaved= 8 IEnMin= 8 EnMin= -113.764970109365     IErMin= 8 ErrMin= 6.88D-08
 ErrMax= 6.88D-08  0.00D+00 EMaxC= 1.00D-01 BMatC= 1.30D-13 BMatP= 1.63D-12
 IDIUse=1 WtCom= 1.00D+00 WtEn= 0.00D+00
 Coeff-Com:  0.275D-03-0.596D-02-0.731D-02-0.328D-02 0.493D-01 0.262D-02
 Coeff-Com: -0.440D+00 0.140D+01
 Coeff:      0.275D-03-0.596D-02-0.731D-02-0.328D-02 0.493D-01 0.262D-02
 Coeff:     -0.440D+00 0.140D+01
 Gap=     0.258 Goal=   None    Shift=    0.000
 Gap=     0.516 Goal=   None    Shift=    0.000
 RMSDP=1.71D-08 MaxDP=2.72D-07 DE=-2.61D-12 OVMax= 5.13D-07

 Cycle  16  Pass 1  IDiag  1:
 E= -113.764970109366     Delta-E=       -0.000000000000 Rises=F Damp=F
 DIIS: error= 2.35D-08 at cycle   9 NSaved=   9.
 NSaved= 9 IEnMin= 9 EnMin= -113.764970109366     IErMin= 9 ErrMin= 2.35D-08
 ErrMax= 2.35D-08  0.00D+00 EMaxC= 1.00D-01 BMatC= 9.04D-15 BMatP= 1.30D-13
 IDIUse=1 WtCom= 1.00D+00 WtEn= 0.00D+00
 Coeff-Com: -0.163D-04 0.131D-02 0.115D-02-0.115D-03-0.162D-01 0.276D-01
 Coeff-Com:  0.416D-01-0.454D+00 0.140D+01
 Coeff:     -0.163D-04 0.131D-02 0.115D-02-0.115D-03-0.162D-01 0.276D-01
 Coeff:      0.416D-01-0.454D+00 0.140D+01
 Gap=     0.258 Goal=   None    Shift=    0.000
 Gap=     0.516 Goal=   None    Shift=    0.000
 RMSDP=4.47D-09 MaxDP=8.21D-08 DE=-2.84D-13 OVMax= 1.55D-07

 SCF Done:  E(UwB97XD) =  -113.764970109     A.U. after   16 cycles
            NFock= 16  Conv=0.45D-08     -V/T= 2.0083
 <Sx>= 0.0000 <Sy>= 0.0000 <Sz>= 0.5000 <S**2>= 0.7538 S= 0.5019
 <L.S>= 0.000000000000E+00
 KE= 1.128256481140D+02 PE=-3.194200317512D+02 EE= 6.665864047847D+01
 Annihilation of the first spin contaminant:
 S**2 before annihilation     0.7538,   after     0.7500
 Leave Link  502 at Thu Oct 28 15:26:29 2021, MaxMem=  2684354560 cpu:         4.3
 (Enter /soft/gaussian/09-e.01/g09/l508.exe)
 QCSCF skips out because SCF is already converged.
 Leave Link  508 at Thu Oct 28 15:26:29 2021, MaxMem=  2684354560 cpu:         0.0
 (Enter /soft/gaussian/09-e.01/g09/l701.exe)
 Compute integral first derivatives.
 ... and contract with generalized density number  0.
 DipInt: DoE/N= T T RetVal/Mat= T F Init=T NMatP=  1 IDeriv=0 Min/MaxMlt=  1  1
 Entering OneElI...
 Multipole integrals L=1 to 1 MinM= 0 MaxM= 0.
 Requested accuracy = 0.1000D-12
 PrsmSu:  NPrtUS=   1 ThrOK=F IAlg=1 NPAlg=1 LenDen=           0.
 Prism:   IPart=     0 DynPar=F LinDyn=F Incr=           1.
 PRISM was handed  2684343563 working-precision words and    55 shell-pairs
 IPart=  0 NShTot=          55 NBatch=          24 AvBLen=         2.3
 PrSmSu:  NxtVal=              2.
 R6Disp: Adding Grimme-D2 dispersion energy 1st derivatives to the gradient.
 Entering OneElI...
 Calculate overlap and kinetic energy integrals
    NBasis =  32  MinDer = 1  MaxDer = 1
 Requested accuracy = 0.1000D-12
 PrsmSu:  NPrtUS=  10 ThrOK=T IAlg=1 NPAlg=1 LenDen=           0.
 Prism:   IPart=     0 DynPar=F LinDyn=F Incr=           1.
 PRISM was handed   268430847 working-precision words and    55 shell-pairs
 PRISM was handed   268430847 working-precision words and    55 shell-pairs
 PRISM was handed   268430847 working-precision words and    55 shell-pairs
 PRISM was handed   268430847 working-precision words and    55 shell-pairs
 PRISM was handed   268430847 working-precision words and    55 shell-pairs
 PRISM was handed   268430847 working-precision words and    55 shell-pairs
 PRISM was handed   268430847 working-precision words and    55 shell-pairs
 PRISM was handed   268430847 working-precision words and    55 shell-pairs
 PRISM was handed   268430847 working-precision words and    55 shell-pairs
 PRISM was handed   268430847 working-precision words and    55 shell-pairs
 IPart=  4 NShTot=           0 NBatch=           0 AvBLen=         0.0
 IPart=  9 NShTot=           0 NBatch=           0 AvBLen=         0.0
 IPart=  8 NShTot=           0 NBatch=           0 AvBLen=         0.0
 IPart=  6 NShTot=           0 NBatch=           0 AvBLen=         0.0
 IPart=  2 NShTot=          10 NBatch=          10 AvBLen=         1.0
 IPart=  0 NShTot=          24 NBatch=          24 AvBLen=         1.0
 IPart=  3 NShTot=           6 NBatch=           6 AvBLen=         1.0
 IPart=  7 NShTot=           0 NBatch=           0 AvBLen=         0.0
 IPart=  1 NShTot=          15 NBatch=          15 AvBLen=         1.0
 IPart=  5 NShTot=           0 NBatch=           0 AvBLen=         0.0
 PrSmSu:  NxtVal=             11.
 Entering OneElI...
 Calculate potential energy integrals
    NBasis =  32  MinDer = 1  MaxDer = 1
 Requested accuracy = 0.1000D-12
 PrsmSu:  NPrtUS=  10 ThrOK=T IAlg=1 NPAlg=1 LenDen=           0.
 Prism:   IPart=     0 DynPar=F LinDyn=F Incr=           1.
 PRISM was handed   268431118 working-precision words and    55 shell-pairs
 PRISM was handed   268431118 working-precision words and    55 shell-pairs
 PRISM was handed   268431118 working-precision words and    55 shell-pairs
 PRISM was handed   268431118 working-precision words and    55 shell-pairs
 PRISM was handed   268431118 working-precision words and    55 shell-pairs
 PRISM was handed   268431118 working-precision words and    55 shell-pairs
 PRISM was handed   268431118 working-precision words and    55 shell-pairs
 PRISM was handed   268431118 working-precision words and    55 shell-pairs
 PRISM was handed   268431118 working-precision words and    55 shell-pairs
 PRISM was handed   268431118 working-precision words and    55 shell-pairs
 IPart=  4 NShTot=           3 NBatch=           1 AvBLen=         3.0
 IPart=  2 NShTot=          30 NBatch=          10 AvBLen=         3.0
 IPart=  0 NShTot=          66 NBatch=          22 AvBLen=         3.0
 IPart=  8 NShTot=           0 NBatch=           0 AvBLen=         0.0
 IPart=  6 NShTot=           0 NBatch=           0 AvBLen=         0.0
 IPart=  9 NShTot=           0 NBatch=           0 AvBLen=         0.0
 IPart=  1 NShTot=          48 NBatch=          16 AvBLen=         3.0
 IPart=  5 NShTot=           0 NBatch=           0 AvBLen=         0.0
 IPart=  3 NShTot=          18 NBatch=           6 AvBLen=         3.0
 IPart=  7 NShTot=           0 NBatch=           0 AvBLen=         0.0
 PrSmSu:  NxtVal=             11.
 l701 out
 I=    0 X=   0.000000000000D+00 Y=   0.000000000000D+00 Z=  -9.923945606513D-01
 I=    1 X=   0.000000000000D+00 Y=   0.000000000000D+00 Z=  -1.024813817614D+01
 I=    2 X=   0.000000000000D+00 Y=   0.000000000000D+00 Z=   1.296650474136D+01
 I=    3 X=   0.000000000000D+00 Y=   0.000000000000D+00 Z=  -2.718366565217D+00
 Leave Link  701 at Thu Oct 28 15:26:29 2021, MaxMem=  2684354560 cpu:         1.4
 (Enter /soft/gaussian/09-e.01/g09/l702.exe)
 L702 exits ... SP integral derivatives will be done elsewhere.
 Leave Link  702 at Thu Oct 28 15:26:29 2021, MaxMem=  2684354560 cpu:         0.1
 (Enter /soft/gaussian/09-e.01/g09/l703.exe)
 Compute integral first derivatives, UseDBF=F ICtDFT=           0.
 Integral derivatives from FoFJK, PRISM(SPDF).
 ICntrl=      2127.
 Calling FoFJK, ICntrl=      2127 FMM=F ISym2X=1 I1Cent= 0 IOpClX= 1 NMat=1 NMatS=1 NMatT=0.
 FoFJK:  IHMeth= 1 ICntrl=    2127 DoSepK=T KAlg= 0 I1Cent=   0 FoldK=F
 IRaf=         1 NMat=   1 IRICut=       1 DoRegI=T DoRafI=F ISym2E= 1.
 FoFCou: FMM=F IPFlag=           0 FMFlag=      100000 FMFlg1=         800
         NFxFlg=           0 DoJE=F BraDBF=F KetDBF=F FulRan=T
         wScrn=  0.000000 ICntrl=    2527 IOpCl=  0 I1Cent=           0 NGrid=           0
         NMat0=    1 NMatS0=      1 NMatT0=    0 NMatD0=    1 NMtDS0=    0 NMtDT0=    0
 Petite list used in FoFCou.
 FoFCou:  KetSym=F NOpSet=  4 NOpAb=4 NOp=  4.
 FoFCou:  CnvScl= 1.00D+00 Thresh= 1.00D-10 IAcrcy=      10.
 PrismS was handed  2684342341 working-precision words and    55 shell-pairs
 FoFCou: LinMIO=F DoNuc=F BraDBF=F KetDBF=F HaveP=T PDBF=F HaveZ=T HaveW=F
         NIJTC =       6 NIJTAt=       0 NIJTCD=       0 NIJTT =       6
         IJTBeg=       1 IJTEnd=       6 KLTBeg=       1 KLTEnd=       6
         IPTBeg=       1 IPTEnd=       6 IPTBCv=       1 IPTECv=       6
         IZTBeg=       1 IZTEnd=       6 IZTBCv=       1 IZTECv=       6
         IWTBeg=       7 IWTEnd=       6 IWTBCv=       7 IWTECv=       6
         INTBeg=       1 INTEnd=       0 IFTBCv=       1 IFTECv=       6
 NCel replicated for PrismC:     1
 CoulSu:  IncDef=  1024 NBBP=           1540 NTPThr=   100 NPartT=   10 Incr=           1 LDynOK=F.
 CoulSu:  NPrtUS=  10 ThrOK=T IAlg=1 NPAlg=1 LenDen=           0 LWGrdD=           0 DoCopy=F.
 Enter PrismC: JobTyp=21 DoJE=F Cont=F.
 PrismC:  IPart=     0 DynPar=F LinDyn=F Incr=           1 UseFst=F UseS4=T IGathr=2.
 PrismC was handed   268431012 working-precision words and    55 shell-pairs
 Enter PrismC: JobTyp=21 DoJE=F Cont=F.
 Enter PrismC: JobTyp=21 DoJE=F Cont=F.
 PrismC was handed   268431012 working-precision words and    55 shell-pairs
 PrismC was handed   268431012 working-precision words and    55 shell-pairs
 Enter PrismC: JobTyp=21 DoJE=F Cont=F.
 PrismC was handed   268431012 working-precision words and    55 shell-pairs
 Enter PrismC: JobTyp=21 DoJE=F Cont=F.
 PrismC was handed   268431012 working-precision words and    55 shell-pairs
 Enter PrismC: JobTyp=21 DoJE=F Cont=F.
 Enter PrismC: JobTyp=21 DoJE=F Cont=F.
 PrismC was handed   268431012 working-precision words and    55 shell-pairs
 PrismC was handed   268431012 working-precision words and    55 shell-pairs
 Enter PrismC: JobTyp=21 DoJE=F Cont=F.
 PrismC was handed   268431012 working-precision words and    55 shell-pairs
 Enter PrismC: JobTyp=21 DoJE=F Cont=F.
 Enter PrismC: JobTyp=21 DoJE=F Cont=F.
 PrismC was handed   268431012 working-precision words and    55 shell-pairs
 PrismC was handed   268431012 working-precision words and    55 shell-pairs
 IPart=  9 NShTot=          54 NShNF=          54 NShFF=           0 NBatch=          49 AvBLen=         1.1
 IPart=  6 NShTot=          86 NShNF=          86 NShFF=           0 NBatch=          80 AvBLen=         1.1
 IPart=  8 NShTot=          64 NShNF=          64 NShFF=           0 NBatch=          59 AvBLen=         1.1
 IPart=  7 NShTot=          85 NShNF=          85 NShFF=           0 NBatch=          80 AvBLen=         1.1
 IPart=  5 NShTot=         122 NShNF=         122 NShFF=           0 NBatch=         101 AvBLen=         1.2
[...]
 APT charges with hydrogens summed into heavy atoms:
               1
     1  C    0.266423
     2  O   -0.266423
 Electronic spatial extent (au):  <R**2>=             50.7923
 Charge=             -0.0000 electrons
 Dipole moment (field-independent basis, Debye):
    X=              0.0000    Y=              0.0000    Z=             -2.5215  Tot=              2.5215
 Quadrupole moment (field-independent basis, Debye-Ang):
   XX=            -12.1102   YY=            -10.5016   ZZ=             -8.6696
   XY=              0.0000   XZ=              0.0000   YZ=              0.0000
 Traceless Quadrupole moment (field-independent basis, Debye-Ang):
   XX=             -1.6831   YY=             -0.0745   ZZ=              1.7575
   XY=              0.0000   XZ=              0.0000   YZ=              0.0000
 Octapole moment (field-independent basis, Debye-Ang**2):
  XXX=              0.0000  YYY=              0.0000  ZZZ=             -4.0356  XYY=              0.0000
  XXY=              0.0000  XXZ=              1.3928  XZZ=              0.0000  YZZ=              0.0000
  YYZ=              0.5367  XYZ=              0.0000
 Hexadecapole moment (field-independent basis, Debye-Ang**3):
 XXXX=            -11.0828 YYYY=             -8.3056 ZZZZ=            -29.9719 XXXY=              0.0000
 XXXZ=              0.0000 YYYX=              0.0000 YYYZ=              0.0000 ZZZX=              0.0000
 ZZZY=              0.0000 XXYY=             -3.2314 XXZZ=             -9.3561 YYZZ=             -7.9958
 XXYZ=              0.0000 YYXZ=              0.0000 ZZXY=              0.0000
 N-N= 2.618402658222D+01 E-N=-3.194480727841D+02  KE= 1.128276948686D+02
 Symmetry A1   KE= 1.032105270175D+02
 Symmetry A2   KE= 1.188202575323D-35
 Symmetry B1   KE= 5.795547756389D+00
 Symmetry B2   KE= 3.821620094739D+00
  Exact polarizability:   7.796   0.000   6.703   0.000  -0.000  16.531
 Approx polarizability:   7.604  -0.000   7.143  -0.000  -0.000  20.631
                          Isotropic Fermi Contact Couplings
        Atom                 a.u.       MegaHertz       Gauss      10(-4) cm-1
     1  C(13)              0.05575      62.66828      22.36160      20.90389
     2  O(17)              0.05670     -34.36869     -12.26360     -11.46416
     3  H(1)              -0.01963     -87.73569     -31.30627     -29.26547
 --------------------------------------------------------
       Center         ----  Spin Dipole Couplings  ----
                      3XX-RR        3YY-RR        3ZZ-RR
 --------------------------------------------------------
     1   Atom        0.924342     -0.462805     -0.461536
     2   Atom        1.483224     -0.792522     -0.690702
     3   Atom       -0.000875     -0.069585      0.070459
 --------------------------------------------------------
                        XY            XZ            YZ
 --------------------------------------------------------
     1   Atom        0.000000      0.000000      0.000000
     2   Atom        0.000000      0.000000      0.000000
     3   Atom        0.000000      0.000000      0.000000
 --------------------------------------------------------


 ---------------------------------------------------------------------------------
              Anisotropic Spin Dipole Couplings in Principal Axis System
 ---------------------------------------------------------------------------------

       Atom             a.u.   MegaHertz   Gauss  10(-4) cm-1        Axes

              Baa    -0.4628   -62.104   -22.160   -20.716 -0.0000  1.0000  0.0000
     1 C(13)  Bbb    -0.4615   -61.934   -22.099   -20.659  0.0000  0.0000  1.0000
              Bcc     0.9243   124.038    44.260    41.375  1.0000  0.0000  0.0000
 
              Baa    -0.7925    57.346    20.463    19.129 -0.0000  1.0000  0.0000
     2 O(17)  Bbb    -0.6907    49.979    17.834    16.671  0.0000  0.0000  1.0000
              Bcc     1.4832  -107.325   -38.296   -35.800  1.0000  0.0000  0.0000
 
              Baa    -0.0696   -37.127   -13.248   -12.384 -0.0000  1.0000  0.0000
     3 H(1)   Bbb    -0.0009    -0.467    -0.167    -0.156  1.0000  0.0000  0.0000
              Bcc     0.0705    37.594    13.414    12.540  0.0000  0.0000  1.0000
 

 ---------------------------------------------------------------------------------

 No NMR shielding tensors so no spin-rotation constants.
 Leave Link  601 at Thu Oct 28 15:26:34 2021, MaxMem=  2684354560 cpu:         2.6
 (Enter /soft/gaussian/09-e.01/g09/l701.exe)
 Compute integral second derivatives.
 ... and contract with generalized density number  0.
 R6Disp: Adding Grimme-D2 dispersion energy 2nd derivatives to the Hessian.
 Leave Link  701 at Thu Oct 28 15:26:35 2021, MaxMem=  2684354560 cpu:         1.6
 (Enter /soft/gaussian/09-e.01/g09/l702.exe)
 L702 exits ... SP integral derivatives will be done elsewhere.
 Leave Link  702 at Thu Oct 28 15:26:35 2021, MaxMem=  2684354560 cpu:         0.2
 (Enter /soft/gaussian/09-e.01/g09/l703.exe)
 Compute integral second derivatives, UseDBF=F ICtDFT=           0.
 Integral derivatives from FoFJK, PRISM(SPDF).
 Calling FoFJK, ICntrl=    100127 FMM=F ISym2X=1 I1Cent= 0 IOpClX= 1 NMat=1 NMatS=1 NMatT=0.
 FoFJK:  IHMeth= 1 ICntrl=  100127 DoSepK=T KAlg= 0 I1Cent=   0 FoldK=F
 IRaf=         1 NMat=   1 IRICut=       1 DoRegI=T DoRafI=F ISym2E= 1.
 FoFCou: FMM=F IPFlag=           0 FMFlag=      100000 FMFlg1=         800
         NFxFlg=           0 DoJE=F BraDBF=F KetDBF=F FulRan=T
         wScrn=  0.000000 ICntrl=  100527 IOpCl=  0 I1Cent=           0 NGrid=           0
         NMat0=    1 NMatS0=      1 NMatT0=    0 NMatD0=    1 NMtDS0=    0 NMtDT0=    0
 Petite list used in FoFCou.
 Leave Link  703 at Thu Oct 28 15:26:35 2021, MaxMem=  2684354560 cpu:         6.1
 (Enter /soft/gaussian/09-e.01/g09/l716.exe)
 Dipole        = 0.00000000D+00 0.00000000D+00-9.92030188D-01
 Polarizability= 7.79571272D+00 0.00000000D+00 6.70276114D+00
                 0.00000000D+00-3.20340177D-14 1.65308569D+01
 Full mass-weighted force constant matrix:
 Low frequencies ----1625.8561   -0.0009   -0.0008    0.0006   30.8577   32.4078
 Low frequencies ---  854.1517 1920.2457 3508.1062
 ******    1 imaginary frequencies (negative Signs) ****** 
 Diagonal vibrational polarizability:
        2.9912193       0.6997923       0.5307816
 Harmonic frequencies (cm**-1), IR intensities (KM/Mole), Raman scattering
 activities (A**4/AMU), depolarization ratios for plane and unpolarized
 incident light, reduced masses (AMU), force constants (mDyne/A),
 and normal coordinates:
                      1                      2                      3
                     PI                     PI                     SG
 Frequencies --  -1625.8558               854.1485              1920.2457
 Red. masses --      1.3254                 1.3254                 6.1083
 Frc consts  --      2.0643                 0.5697                13.2704
 IR Inten    --    293.8185                18.9716                57.2737
  Atom  AN      X      Y      Z        X      Y      Z        X      Y      Z
     1   6    -0.16  -0.00  -0.00    -0.00  -0.16  -0.00     0.00  -0.00   0.48
     2   8     0.06  -0.00  -0.00    -0.00   0.06   0.00     0.00   0.00  -0.41
     3   1     0.99  -0.00  -0.00    -0.00   0.99  -0.00     0.00   0.00   0.77
                      4
                     SG
 Frequencies --   3508.1062
 Red. masses --      1.1482
 Frc consts  --      8.3255
 IR Inten    --     51.5771
  Atom  AN      X      Y      Z
     1   6    -0.00  -0.00  -0.11
     2   8    -0.00   0.00   0.02
     3   1    -0.00   0.00   0.99

 -------------------
 - Thermochemistry -
 -------------------
 Temperature   298.150 Kelvin.  Pressure   1.00000 Atm.
 Atom     1 has atomic number  6 and mass  12.00000
 Atom     2 has atomic number  8 and mass  15.99491
 Atom     3 has atomic number  1 and mass   1.00783
 Molecular mass:    29.00274 amu.
 Principal axes and moments of inertia in atomic units:
                           1         2         3
     Eigenvalues --     0.00000  45.31549  45.31549
           X            0.00000  -0.00000   1.00000
           Y            0.00000   1.00000   0.00000
           Z            1.00000   0.00000   0.00000
 This molecule is a prolate symmetric top.
 Rotational symmetry number  1.
 Rotational temperature (Kelvin)      1.91135
 Rotational constant (GHZ):          39.826139
    1 imaginary frequencies ignored.
 Zero-point vibrational energy      37577.7 (Joules/Mol)
                                    8.98129 (Kcal/Mol)
 Vibrational temperatures:   1228.93  2762.80  5047.38
          (Kelvin)
 
 Zero-point correction=                           0.014313 (Hartree/Particle)
 Thermal correction to Energy=                    0.016738
 Thermal correction to Enthalpy=                  0.017682
 Thermal correction to Gibbs Free Energy=        -0.005883
 Sum of electronic and zero-point Energies=           -113.750659
 Sum of electronic and thermal Energies=              -113.748234
 Sum of electronic and thermal Enthalpies=            -113.747290
 Sum of electronic and thermal Free Energies=         -113.770855
 
                     E (Thermal)             CV                S
                      KCal/Mol        Cal/Mol-Kelvin    Cal/Mol-Kelvin
 Total                   10.503              5.550             49.597
 Electronic               0.000              0.000              1.377
 Translational            0.889              2.981             36.028
 Rotational               0.592              1.987             12.022
 Vibrational              9.022              0.582              0.169
                       Q            Log10(Q)             Ln(Q)
 Total Bot       0.508228D+03          2.706059          6.230931
 Total V=0       0.194706D+10          9.289379         21.389585
 Vib (Bot)       0.265351D-06         -6.576179        -15.142212
 Vib (V=0)       0.101658D+01          0.007141          0.016442
 Electronic      0.200000D+01          0.301030          0.693147
 Translational   0.613923D+07          6.788114         15.630210
 Rotational      0.155989D+03          2.193094          5.049786
 
                                                               comment:
                                                             IR Spectrum
 
     3                                                         1                                                                     
     5                                                         9                                      8                              
     0                                                         2                                      5                              
     8                                                         0                                      4                              
 
     X                                                         X                                      X                              
     X                                                         X                                      X                              
     X                                                         X                                      X                              
     X                                                         X                                      X                              
     X                                                         X                                      X                              
     X                                                         X                                      X                              
     X                                                         X                                      X                              
     X                                                         X                                                                     
     X                                                         X                                                                     
     X                                                         X                                                                     
     X                                                         X                                                                     
     X                                                         X                                                                     
     X                                                         X                                                                     
     X                                                         X                                                                     
     X                                                         X                                                                     
     X                                                         X                                                                     
     X                                                         X                                                                     
     X                                                         X                                                                     
                                                               X                                                                     
                                                               X                                                                     
 
 ***** Axes restored to original set *****
 -------------------------------------------------------------------
 Center     Atomic                   Forces (Hartrees/Bohr)
 Number     Number              X              Y              Z
 -------------------------------------------------------------------
      1        6          -0.000400614   -0.000000000   -0.000000000
      2        8           0.000178628   -0.000000000   -0.000000000
      3        1           0.000221986   -0.000000000   -0.000000000
 -------------------------------------------------------------------
 Cartesian Forces:  Max     0.000400614 RMS     0.000163869
 Force constants in Cartesian coordinates: 
                1             2             3             4             5 
      1  0.148110D+01
      2  0.000000D+00  0.736400D-01
      3  0.000000D+00  0.000000D+00 -0.268342D+00
      4 -0.104569D+01  0.000000D+00  0.000000D+00  0.103095D+01
      5  0.000000D+00 -0.347460D-01  0.000000D+00  0.000000D+00  0.164938D-01
      6  0.000000D+00  0.000000D+00  0.126894D+00  0.000000D+00  0.000000D+00
      7 -0.435407D+00  0.000000D+00  0.000000D+00  0.147453D-01  0.000000D+00
      8  0.000000D+00 -0.388940D-01  0.000000D+00  0.000000D+00  0.182522D-01
      9  0.000000D+00  0.000000D+00  0.141448D+00  0.000000D+00  0.000000D+00
                6             7             8             9 
      6 -0.599161D-01
      7  0.000000D+00  0.420661D+00
      8  0.000000D+00  0.000000D+00  0.206418D-01
      9 -0.669777D-01  0.000000D+00  0.000000D+00 -0.744703D-01
 FormGI is forming the generalized inverse of G from B-inverse, IUseBI=4.
 Force constants in internal coordinates: 
                1             2             3             4 
      1  0.103095D+01
      2 -0.147453D-01  0.420661D+00
      3  0.000000D+00  0.000000D+00 -0.303555D+00
      4  0.000000D+00  0.000000D+00  0.000000D+00  0.832558D-01
 Leave Link  716 at Thu Oct 28 15:26:35 2021, MaxMem=  2684354560 cpu:         0.3
 (Enter /soft/gaussian/09-e.01/g09/l103.exe)

 GradGradGradGradGradGradGradGradGradGradGradGradGradGradGradGradGradGrad
 Berny optimization.
 Red2BG is reusing G-inverse.
 Internal  Forces:  Max     0.000221986 RMS     0.000142465
 Search for a local minimum.
 Step number   1 out of a maximum of    2
 All quantities printed in internal units (Hartrees-Bohrs-Radians)
 Second derivative matrix not updated -- analytic derivatives used.
 The second derivative matrix:
                          R1        R2        A1        A2
           R1           1.03095
           R2          -0.01475   0.42066
           A1           0.00000   0.00000  -0.30355
           A2          -0.00000  -0.00000   0.00000   0.08326
 ITU=  0
     Eigenvalues ---   -0.30355   0.08326   0.42031   1.03130
 Eigenvalue     1 is  -3.04D-01 should be greater than     0.000000 Eigenvector:
                          A1        R2        R1        A2
   1                   -1.00000  -0.00000  -0.00000   0.00000
 Angle between quadratic step and forces=  21.20 degrees.
 Linear search not attempted -- first point.
 Iteration  1 RMS(Cart)=  0.00018856 RMS(Int)=  0.00000000
 Iteration  2 RMS(Cart)=  0.00000000 RMS(Int)=  0.00000000
 ITry= 1 IFail=0 DXMaxC= 2.93D-04 DCOld= 1.00D+10 DXMaxT= 3.00D-01 DXLimC= 3.00D+00 Rises=F
 ClnCor:  largest displacement from symmetrization is 0.00D+00 for atom     0.
 Variable       Old X    -DE/DX   Delta X   Delta X   Delta X     New X
                                 (Linear)    (Quad)   (Total)
    R1        2.24989   0.00018   0.00000   0.00017   0.00017   2.25006
    R2        2.01692  -0.00022   0.00000  -0.00052  -0.00052   2.01640
    A1        3.14159  -0.00000   0.00000  -0.00000   0.00000   3.14159
    A2        3.14159  -0.00000   0.00000   0.00000   0.00000   3.14159
         Item               Value     Threshold  Converged?
 Maximum Force            0.000222     0.000450     YES
 RMS     Force            0.000142     0.000300     YES
 Maximum Displacement     0.000293     0.001800     YES
 RMS     Displacement     0.000189     0.001200     YES
 Predicted change in Energy=-7.273509D-08
 Optimization completed.
    -- Stationary point found.
                           ----------------------------
                           !   Optimized Parameters   !
                           ! (Angstroms and Degrees)  !
 --------------------------                            --------------------------
 ! Name  Definition              Value          Derivative Info.                !
 --------------------------------------------------------------------------------
 ! R1    R(1,2)                  1.1906         -DE/DX =    0.0002              !
 ! R2    R(1,3)                  1.0673         -DE/DX =   -0.0002              !
 ! A1    L(2,1,3,-2,-1)        180.0            -DE/DX =    0.0                 !
 ! A2    L(2,1,3,-3,-2)        180.0            -DE/DX =    0.0                 !
 --------------------------------------------------------------------------------
 GradGradGradGradGradGradGradGradGradGradGradGradGradGradGradGradGradGrad

 Leave Link  103 at Thu Oct 28 15:26:35 2021, MaxMem=  2684354560 cpu:         0.1
 (Enter /soft/gaussian/09-e.01/g09/l9999.exe)

 Test job not archived.
 1\1\GINC-B460\Freq\UwB97XD\6-31G(d)\C1H1O1(2)\KMOORE\28-Oct-2021\0\\#P
  Geom=AllCheck Guess=TCheck SCRF=Check Test GenChk UwB97XD/6-31G(d) Fr
 eq\\comment:\\0,2\C,0.0039052397,0.,0.\O,1.1944974336,0.,0.\H,-1.06340
 26733,0.,0.\\Version=ES64L-G09RevE.01\HF=-113.764972\S2=0.753792\S2-1=
 0.\S2A=0.75001\RMSD=5.857e-10\RMSF=1.639e-04\ZeroPoint=0.0143126\Therm
 al=0.016738\Dipole=-0.9920302,0.,0.\DipoleDeriv=0.2840256,0.,0.,0.,0.0
 795263,0.,0.,0.,-0.590745,-0.5753904,0.,0.,0.,-0.270343,0.,0.,0.,0.046
 463,0.2913648,0.,0.,0.,0.1908167,0.,0.,0.,0.544282\Polar=16.5308569,0.
 ,6.7027611,0.,0.,7.7957127\PG=C*V [C*(H1C1O1)]\NImag=1\\1.48109910,0.,
 0.07364002,0.,0.,-0.26834174,-1.04569228,0.,0.,1.03094694,0.,-0.034745
 97,0.,0.,0.01649377,0.,0.,0.12689378,0.,0.,-0.05991610,-0.43540682,0.,
 0.,0.01474535,0.,0.,0.42066147,0.,-0.03889404,0.,0.,0.01825220,0.,0.,0
 .02064185,0.,0.,0.14144795,0.,0.,-0.06697769,0.,0.,-0.07447027\\0.0004
 0061,0.,0.,-0.00017863,0.,0.,-0.00022199,0.,0.\\\@


 I SUPPOSE A BABY LLAMA HAS A MMAMA AND A PPOPA.
     -- RICHARD AMOUR
 Job cpu time:       0 days  0 hours  0 minutes 32.1 seconds.
 File lengths (MBytes):  RWF=      5 Int=      0 D2E=      0 Chk=      1 Scr=      1
 Normal termination of Gaussian 09 at Thu Oct 28 15:26:35 2021.
