 Entering Gaussian System, Link 0=g09
 Input=qc.in
 Output=qc.out
 Initial command:
 /soft/gaussian/09-e.01/g09/l1.exe "/scratch/kmoore/Gau-10586.inp" -scrdir="/scratch/kmoore/"
 Entering Link 1 = /soft/gaussian/09-e.01/g09/l1.exe PID=     10587.
  
 Copyright (c) 1988,1990,1992,1993,1995,1998,2003,2009,2015,
            Gaussian, Inc.  All Rights Reserved.
  
 This is part of the Gaussian(R) 09 program.  It is based on
 the Gaussian(R) 03 system (copyright 2003, Gaussian, Inc.),
 the Gaussian(R) 98 system (copyright 1998, Gaussian, Inc.),
 the Gaussian(R) 94 system (copyright 1995, Gaussian, Inc.),
 the Gaussian 92(TM) system (copyright 1992, Gaussian, Inc.),
 the Gaussian 90(TM) system (copyright 1990, Gaussian, Inc.),
 the Gaussian 88(TM) system (copyright 1988, Gaussian, Inc.),
 the Gaussian 86(TM) system (copyright 1986, Carnegie Mellon
 University), and the Gaussian 82(TM) system (copyright 1983,
 Carnegie Mellon University). Gaussian is a federally registered
 trademark of Gaussian, Inc.
  
 This software contains proprietary and confidential information,
 including trade secrets, belonging to Gaussian, Inc.
  
 This software is provided under written license and may be
 used, copied, transmitted, or stored only in accord with that
 written license.
  
 The following legend is applicable only to US Government
 contracts under FAR:
  
                    RESTRICTED RIGHTS LEGEND
  
 Use, reproduction and disclosure by the US Government is
 subject to restrictions as set forth in subparagraphs (a)
 and (c) of the Commercial Computer Software - Restricted
 Rights clause in FAR 52.227-19.
  
 Gaussian, Inc.
 340 Quinnipiac St., Bldg. 40, Wallingford CT 06492
  
  
 ---------------------------------------------------------------
 Warning -- This program may not be used in any manner that
 competes with the business of Gaussian, Inc. or will provide
 assistance to any competitor of Gaussian, Inc.  The licensee
 of this program is prohibited from giving any competitor of
 Gaussian, Inc. access to this program.  By using this program,
 the user acknowledges that Gaussian, Inc. is engaged in the
 business of creating and licensing software in the field of
 computational chemistry and represents and warrants to the
 licensee that it is not a competitor of Gaussian, Inc. and that
 it will not use this program in any manner prohibited above.
 ---------------------------------------------------------------
  

 Cite this work as:
 Gaussian 09, Revision E.01,
 M. J. Frisch, G. W. Trucks, H. B. Schlegel, G. E. Scuseria, 
 M. A. Robb, J. R. Cheeseman, G. Scalmani, V. Barone, B. Mennucci, 
 G. A. Petersson, H. Nakatsuji, M. Caricato, X. Li, H. P. Hratchian, 
 A. F. Izmaylov, J. Bloino, G. Zheng, J. L. Sonnenberg, M. Hada, 
 M. Ehara, K. Toyota, R. Fukuda, J. Hasegawa, M. Ishida, T. Nakajima, 
 Y. Honda, O. Kitao, H. Nakai, T. Vreven, J. A. Montgomery, Jr., 
 J. E. Peralta, F. Ogliaro, M. Bearpark, J. J. Heyd, E. Brothers, 
 K. N. Kudin, V. N. Staroverov, T. Keith, R. Kobayashi, J. Normand, 
 K. Raghavachari, A. Rendell, J. C. Burant, S. S. Iyengar, J. Tomasi, 
 M. Cossi, N. Rega, J. M. Millam, M. Klene, J. E. Knox, J. B. Cross, 
 V. Bakken, C. Adamo, J. Jaramillo, R. Gomperts, R. E. Stratmann, 
 O. Yazyev, A. J. Austin, R. Cammi, C. Pomelli, J. W. Ochterski, 
 R. L. Martin, K. Morokuma, V. G. Zakrzewski, G. A. Voth, 
 P. Salvador, J. J. Dannenberg, S. Dapprich, A. D. Daniels, 
 O. Farkas, J. B. Foresman, J. V. Ortiz, J. Cioslowski, 
 and D. J. Fox, Gaussian, Inc., Wallingford CT, 2013.
 
 ******************************************
 Gaussian 09:  ES64L-G09RevE.01 30-Nov-2015
                16-Aug-2021 
 ******************************************
 %mem=1GB
 %NProcShared=10
 Will use up to   10 processors via shared memory.
 ----------------------------------------------------------------------
 #P m062x/cc-pvdz # SCF=(xqc) # Force=() # int=ultrafine # fchk NoSym g
 uess=mix
 ----------------------------------------------------------------------
 1/10=7,30=1,38=1/1,3;
 2/12=2,15=1,17=6,18=5,40=1/2;
 3/5=16,11=2,16=1,25=1,30=1,71=1,74=-55,75=-5/1,2,3;
 4/13=-1/1;
 5/5=2,8=3,13=1,38=5/2,8;
 6/7=2,8=2,9=2,10=2,28=1/1;
 7/29=1,30=1/1,2,3,16;
 1/10=7,30=1/3;
 99//99;
 Leave Link    1 at Mon Aug 16 22:45:18 2021, MaxMem=   134217728 cpu:         0.3
 (Enter /soft/gaussian/09-e.01/g09/l101.exe)
 --------
 comment:
 --------
 Symbolic Z-matrix:
 Charge =  0 Multiplicity = 3
 O                     1.19701  -0.23602   0.03576 
 C                     0.0801    0.43599  -0.07281 
 C                    -1.22696  -0.22965  -0.0195 
 H                     0.07982   1.32464  -0.74914 
 H                    -0.08859   0.93829   0.95905 
 H                    -1.28753  -1.25769   0.34313 
 H                    -2.1386    0.35278  -0.16339 
 
 NAtoms=      7 NQM=        7 NQMF=       0 NMMI=      0 NMMIF=      0
                NMic=       0 NMicF=      0.
                    Isotopes and Nuclear Properties:
 (Nuclear quadrupole moments (NQMom) in fm**2, nuclear magnetic moments (NMagM)
  in nuclear magnetons)

  Atom         1           2           3           4           5           6           7
 IAtWgt=          16          12          12           1           1           1           1
 AtmWgt=  15.9949146  12.0000000  12.0000000   1.0078250   1.0078250   1.0078250   1.0078250
 NucSpn=           0           0           0           1           1           1           1
 AtZEff=   0.0000000   0.0000000   0.0000000   0.0000000   0.0000000   0.0000000   0.0000000
 NQMom=    0.0000000   0.0000000   0.0000000   0.0000000   0.0000000   0.0000000   0.0000000
 NMagM=    0.0000000   0.0000000   0.0000000   2.7928460   2.7928460   2.7928460   2.7928460
 AtZNuc=   8.0000000   6.0000000   6.0000000   1.0000000   1.0000000   1.0000000   1.0000000
 Leave Link  101 at Mon Aug 16 22:45:18 2021, MaxMem=   134217728 cpu:         0.5
 (Enter /soft/gaussian/09-e.01/g09/l103.exe)

 GradGradGradGradGradGradGradGradGradGradGradGradGradGradGradGradGradGrad
 Berny optimization.
 Initialization pass.
 Trust Radius=3.00D-01 FncErr=1.00D-07 GrdErr=1.00D-07
 Number of steps in this run=      2 maximum allowed number of steps=      2.
 GradGradGradGradGradGradGradGradGradGradGradGradGradGradGradGradGradGrad

 Leave Link  103 at Mon Aug 16 22:45:18 2021, MaxMem=   134217728 cpu:         0.1
 (Enter /soft/gaussian/09-e.01/g09/l202.exe)
                          Input orientation:                          
 ---------------------------------------------------------------------
 Center     Atomic      Atomic             Coordinates (Angstroms)
 Number     Number       Type             X           Y           Z
 ---------------------------------------------------------------------
      1          8           0        1.197010   -0.236020    0.035760
      2          6           0        0.080102    0.435990   -0.072814
      3          6           0       -1.226964   -0.229651   -0.019498
      4          1           0        0.079824    1.324639   -0.749141
      5          1           0       -0.088589    0.938293    0.959045
      6          1           0       -1.287532   -1.257693    0.343126
      7          1           0       -2.138604    0.352783   -0.163392
 ---------------------------------------------------------------------
                    Distance matrix (angstroms):
                    1          2          3          4          5
     1  O    0.000000
     2  C    1.308002   0.000000
     3  C    2.424612   1.467769   0.000000
     4  H    2.073604   1.116743   2.157752   0.000000
     5  H    1.970846   1.159957   1.901983   1.759411   0.000000
     6  H    2.703930   2.216301   1.091803   3.119479   2.576659
     7  H    3.393032   2.222113   1.091339   2.491792   2.409408
                    6          7
     6  H    0.000000
     7  H    1.890639   0.000000
 Symmetry turned off by external request.
 Stoichiometry    C2H4O(3)
 Framework group  C1[X(C2H4O)]
 Deg. of freedom    15
 Full point group                 C1      NOp   1
 Rotational constants (GHZ):     51.0693016     10.3494838      9.0850870
 Leave Link  202 at Mon Aug 16 22:45:18 2021, MaxMem=   134217728 cpu:         0.1
 (Enter /soft/gaussian/09-e.01/g09/l301.exe)
 Standard basis: CC-pVDZ (5D, 7F)
 Ernie: Thresh=  0.10000D-02 Tol=  0.10000D-05 Strict=F.
 Ernie:  6 primitive shells out of 86 were deleted.
    62 basis functions,   127 primitive gaussians,    65 cartesian basis functions
    13 alpha electrons       11 beta electrons
       nuclear repulsion energy        68.6652217947 Hartrees.
 IExCor= 4336 DFT=T Ex+Corr=M062X ExCW=0 ScaHFX=  0.540000
 ScaDFX=  1.000000  1.000000  1.000000  1.000000 ScalE2=  1.000000  1.000000
 IRadAn=      5 IRanWt=     -1 IRanGd=            0 ICorTp=0 IEmpDi=  4
 NAtoms=    7 NActive=    7 NUniq=    7 SFac= 1.00D+00 NAtFMM=   60 NAOKFM=F Big=F
 Integral buffers will be    131072 words long.
 Raffenetti 2 integral format.
 Two-electron integral symmetry is turned off.
 Leave Link  301 at Mon Aug 16 22:45:18 2021, MaxMem=   134217728 cpu:         0.4
 (Enter /soft/gaussian/09-e.01/g09/l302.exe)
 NPDir=0 NMtPBC=     1 NCelOv=     1 NCel=       1 NClECP=     1 NCelD=      1
         NCelK=      1 NCelE2=     1 NClLst=     1 CellRange=     0.0.
 One-electron integrals computed using PRISM.
 NBasis=    62 RedAO= T EigKep=  5.25D-03  NBF=    62
 NBsUse=    62 1.00D-06 EigRej= -1.00D+00 NBFU=    62
 Precomputing XC quadrature grid using
 IXCGrd= 4 IRadAn=           5 IRanWt=          -1 IRanGd=           0 AccXCQ= 0.00D+00.
 Generated NRdTot=       0 NPtTot=           0 NUsed=           0 NTot=          32
 NSgBfM=    65    65    65    65    65 MxSgAt=     7 MxSgA2=     7.
 Leave Link  302 at Mon Aug 16 22:45:19 2021, MaxMem=   134217728 cpu:         1.4
 (Enter /soft/gaussian/09-e.01/g09/l303.exe)
 DipDrv:  MaxL=1.
 Leave Link  303 at Mon Aug 16 22:45:19 2021, MaxMem=   134217728 cpu:         0.2
 (Enter /soft/gaussian/09-e.01/g09/l401.exe)
 ExpMin= 1.22D-01 ExpMax= 1.17D+04 ExpMxC= 4.01D+02 IAcc=3 IRadAn=         5 AccDes= 0.00D+00
 Harris functional with IExCor= 1009 and IRadAn=       5 diagonalized for initial guess.
 HarFok:  IExCor= 1009 AccDes= 0.00D+00 IRadAn=         5 IDoV= 1 UseB2=F ITyADJ=14
 ICtDFT=  3500011 ScaDFX=  1.000000  1.000000  1.000000  1.000000
 FoFCou: FMM=F IPFlag=           0 FMFlag=      100000 FMFlg1=           0
         NFxFlg=           0 DoJE=T BraDBF=F KetDBF=T FulRan=T
         wScrn=  0.000000 ICntrl=     500 IOpCl=  0 I1Cent=   200000004 NGrid=           0
         NMat0=    1 NMatS0=      1 NMatT0=    0 NMatD0=    1 NMtDS0=    0 NMtDT0=    0
 Symmetry not used in FoFCou.
 Harris En= -153.496479562281    
 JPrj=0 DoOrth=F DoCkMO=T.
 Mixing orbitals, IMix= 1 IMixAn=  0 NRI=1 NE=   13 Coef=  7.07106781D-01  7.07106781D-01
 Mixing orbitals, IMix= 1 IMixAn=  0 NRI=1 NE=   11 Coef= -7.07106781D-01  7.07106781D-01
 Initial guess <Sx>= 0.0000 <Sy>= 0.0000 <Sz>= 1.0000 <S**2>= 2.0000 S= 1.0000
 Leave Link  401 at Mon Aug 16 22:45:19 2021, MaxMem=   134217728 cpu:         2.4
 (Enter /soft/gaussian/09-e.01/g09/l502.exe)
 UHF open shell SCF:
 Using DIIS extrapolation, IDIIS=  1040.
 Two-electron integral symmetry not used.
 Keep R1 and R2 ints in memory in canonical form, NReq=4724777.
 IVT=       19671 IEndB=       19671 NGot=   134217728 MDV=   130381896
 LenX=   130381896 LenY=   130377230
 Requested convergence on RMS density matrix=1.00D-08 within  64 cycles.
 Requested convergence on MAX density matrix=1.00D-06.
 Requested convergence on             energy=1.00D-06.
 No special actions if energy rises.
 FoFCou: FMM=F IPFlag=           0 FMFlag=           0 FMFlg1=           0
         NFxFlg=           0 DoJE=F BraDBF=F KetDBF=F FulRan=T
         wScrn=  0.000000 ICntrl=     600 IOpCl=  0 I1Cent=           0 NGrid=           0
         NMat0=    1 NMatS0=   1953 NMatT0=    0 NMatD0=    1 NMtDS0=    0 NMtDT0=    0
 Symmetry not used in FoFCou.
 Integral accuracy reduced to 1.0D-05 until final iterations.

 Cycle   1  Pass 0  IDiag  1:
 E= -153.460426296146    
 DIIS: error= 2.38D-02 at cycle   1 NSaved=   1.
 NSaved= 1 IEnMin= 1 EnMin= -153.460426296146     IErMin= 1 ErrMin= 2.38D-02
 ErrMax= 2.38D-02  0.00D+00 EMaxC= 1.00D-01 BMatC= 1.56D-01 BMatP= 1.56D-01
 IDIUse=3 WtCom= 7.62D-01 WtEn= 2.38D-01
 Coeff-Com:  0.100D+01
 Coeff-En:   0.100D+01
 Coeff:      0.100D+01
 Gap=     0.150 Goal=   None    Shift=    0.000
 Gap=     0.235 Goal=   None    Shift=    0.000
 GapD=    0.150 DampG=1.000 DampE=0.500 DampFc=0.5000 IDamp=-1.
 Damping current iteration by 5.00D-01
 RMSDP=2.17D-02 MaxDP=4.59D-01              OVMax= 4.54D-01

 Cycle   2  Pass 0  IDiag  1:
 E= -153.514472802774     Delta-E=       -0.054046506628 Rises=F Damp=T
 DIIS: error= 1.74D-02 at cycle   2 NSaved=   2.
 NSaved= 2 IEnMin= 2 EnMin= -153.514472802774     IErMin= 2 ErrMin= 1.74D-02
 ErrMax= 1.74D-02  0.00D+00 EMaxC= 1.00D-01 BMatC= 3.82D-02 BMatP= 1.56D-01
 IDIUse=3 WtCom= 8.26D-01 WtEn= 1.74D-01
 Coeff-Com: -0.433D+00 0.143D+01
 Coeff-En:   0.000D+00 0.100D+01
 Coeff:     -0.357D+00 0.136D+01
 Gap=     0.295 Goal=   None    Shift=    0.000
 Gap=     0.236 Goal=   None    Shift=    0.000
 RMSDP=1.57D-02 MaxDP=3.86D-01 DE=-5.40D-02 OVMax= 1.35D-01

 Cycle   3  Pass 0  IDiag  1:
 E= -153.600068337786     Delta-E=       -0.085595535012 Rises=F Damp=F
 DIIS: error= 6.74D-03 at cycle   3 NSaved=   3.
 NSaved= 3 IEnMin= 3 EnMin= -153.600068337786     IErMin= 3 ErrMin= 6.74D-03
 ErrMax= 6.74D-03  0.00D+00 EMaxC= 1.00D-01 BMatC= 7.02D-03 BMatP= 3.82D-02
 IDIUse=3 WtCom= 9.33D-01 WtEn= 6.74D-02
 Coeff-Com: -0.177D+00 0.245D+00 0.932D+00
 Coeff-En:   0.000D+00 0.000D+00 0.100D+01
 Coeff:     -0.165D+00 0.228D+00 0.936D+00
 Gap=     0.350 Goal=   None    Shift=    0.000
 Gap=     0.242 Goal=   None    Shift=    0.000
 RMSDP=3.56D-03 MaxDP=8.90D-02 DE=-8.56D-02 OVMax= 1.01D-01

 Cycle   4  Pass 0  IDiag  1:
 E= -153.607805746616     Delta-E=       -0.007737408830 Rises=F Damp=F
 DIIS: error= 2.78D-03 at cycle   4 NSaved=   4.
 NSaved= 4 IEnMin= 4 EnMin= -153.607805746616     IErMin= 4 ErrMin= 2.78D-03
 ErrMax= 2.78D-03  0.00D+00 EMaxC= 1.00D-01 BMatC= 1.21D-03 BMatP= 7.02D-03
 IDIUse=3 WtCom= 9.72D-01 WtEn= 2.78D-02
 Coeff-Com:  0.631D-01-0.192D+00-0.683D-01 0.120D+01
 Coeff-En:   0.000D+00 0.000D+00 0.000D+00 0.100D+01
 Coeff:      0.613D-01-0.186D+00-0.664D-01 0.119D+01
 Gap=     0.362 Goal=   None    Shift=    0.000
 Gap=     0.249 Goal=   None    Shift=    0.000
 RMSDP=1.88D-03 MaxDP=4.23D-02 DE=-7.74D-03 OVMax= 5.58D-02

 Cycle   5  Pass 0  IDiag  1:
 E= -153.609673144063     Delta-E=       -0.001867397447 Rises=F Damp=F
 DIIS: error= 1.27D-03 at cycle   5 NSaved=   5.
 NSaved= 5 IEnMin= 5 EnMin= -153.609673144063     IErMin= 5 ErrMin= 1.27D-03
 ErrMax= 1.27D-03  0.00D+00 EMaxC= 1.00D-01 BMatC= 2.97D-04 BMatP= 1.21D-03
 IDIUse=3 WtCom= 9.87D-01 WtEn= 1.27D-02
 Coeff-Com:  0.233D-01-0.271D-01-0.150D+00 0.252D+00 0.901D+00
 Coeff-En:   0.000D+00 0.000D+00 0.000D+00 0.000D+00 0.100D+01
 Coeff:      0.230D-01-0.268D-01-0.148D+00 0.249D+00 0.903D+00
 Gap=     0.362 Goal=   None    Shift=    0.000
 Gap=     0.251 Goal=   None    Shift=    0.000
 RMSDP=4.14D-04 MaxDP=7.28D-03 DE=-1.87D-03 OVMax= 1.97D-02

 Cycle   6  Pass 0  IDiag  1:
 E= -153.610014453146     Delta-E=       -0.000341309082 Rises=F Damp=F
 DIIS: error= 1.15D-03 at cycle   6 NSaved=   6.
 NSaved= 6 IEnMin= 6 EnMin= -153.610014453146     IErMin= 6 ErrMin= 1.15D-03
 ErrMax= 1.15D-03  0.00D+00 EMaxC= 1.00D-01 BMatC= 1.27D-04 BMatP= 2.97D-04
 IDIUse=3 WtCom= 9.89D-01 WtEn= 1.15D-02
 Coeff-Com: -0.154D-03 0.970D-02-0.433D-01-0.416D-01 0.353D+00 0.723D+00
 Coeff-En:   0.000D+00 0.000D+00 0.000D+00 0.000D+00 0.000D+00 0.100D+01
 Coeff:     -0.152D-03 0.959D-02-0.428D-01-0.412D-01 0.349D+00 0.726D+00
 Gap=     0.361 Goal=   None    Shift=    0.000
 Gap=     0.252 Goal=   None    Shift=    0.000
 RMSDP=2.11D-04 MaxDP=4.12D-03 DE=-3.41D-04 OVMax= 1.61D-02

 Cycle   7  Pass 0  IDiag  1:
 E= -153.610210181536     Delta-E=       -0.000195728391 Rises=F Damp=F
 DIIS: error= 1.10D-03 at cycle   7 NSaved=   7.
 NSaved= 7 IEnMin= 7 EnMin= -153.610210181536     IErMin= 7 ErrMin= 1.10D-03
 ErrMax= 1.10D-03  0.00D+00 EMaxC= 1.00D-01 BMatC= 7.34D-05 BMatP= 1.27D-04
 IDIUse=3 WtCom= 9.89D-01 WtEn= 1.10D-02
 Coeff-Com: -0.607D-02 0.118D-01 0.218D-01-0.698D-01-0.110D+00 0.134D+00
 Coeff-Com:  0.102D+01
 Coeff-En:   0.000D+00 0.000D+00 0.000D+00 0.000D+00 0.000D+00 0.000D+00
 Coeff-En:   0.100D+01
 Coeff:     -0.601D-02 0.117D-01 0.216D-01-0.691D-01-0.109D+00 0.133D+00
 Coeff:      0.102D+01
 Gap=     0.361 Goal=   None    Shift=    0.000
 Gap=     0.252 Goal=   None    Shift=    0.000
 RMSDP=2.73D-04 MaxDP=6.60D-03 DE=-1.96D-04 OVMax= 2.20D-02

 Cycle   8  Pass 0  IDiag  1:
 E= -153.610451750083     Delta-E=       -0.000241568547 Rises=F Damp=F
 DIIS: error= 1.04D-03 at cycle   8 NSaved=   8.
 NSaved= 8 IEnMin= 8 EnMin= -153.610451750083     IErMin= 8 ErrMin= 1.04D-03
 ErrMax= 1.04D-03  0.00D+00 EMaxC= 1.00D-01 BMatC= 6.54D-05 BMatP= 7.34D-05
 IDIUse=3 WtCom= 9.90D-01 WtEn= 1.04D-02
 Coeff-Com: -0.959D-03 0.440D-02 0.255D-02-0.324D-02-0.616D-01-0.133D+00
 Coeff-Com:  0.190D-01 0.117D+01
 Coeff-En:   0.000D+00 0.000D+00 0.000D+00 0.000D+00 0.000D+00 0.000D+00
 Coeff-En:   0.000D+00 0.100D+01
 Coeff:     -0.949D-03 0.436D-02 0.252D-02-0.320D-02-0.609D-01-0.132D+00
 Coeff:      0.188D-01 0.117D+01
 Gap=     0.361 Goal=   None    Shift=    0.000
 Gap=     0.253 Goal=   None    Shift=    0.000
 RMSDP=3.14D-04 MaxDP=7.68D-03 DE=-2.42D-04 OVMax= 2.55D-02

 Cycle   9  Pass 0  IDiag  1:
 E= -153.610721306299     Delta-E=       -0.000269556216 Rises=F Damp=F
 DIIS: error= 1.01D-03 at cycle   9 NSaved=   9.
 NSaved= 9 IEnMin= 9 EnMin= -153.610721306299     IErMin= 9 ErrMin= 1.01D-03
 ErrMax= 1.01D-03  0.00D+00 EMaxC= 1.00D-01 BMatC= 6.22D-05 BMatP= 6.54D-05
 IDIUse=3 WtCom= 9.90D-01 WtEn= 1.01D-02
 Coeff-Com:  0.584D-02-0.104D-01-0.297D-01 0.787D-01 0.130D+00-0.101D+00
 Coeff-Com: -0.101D+01 0.133D-01 0.192D+01
 Coeff-En:   0.000D+00 0.000D+00 0.000D+00 0.000D+00 0.000D+00 0.000D+00
 Coeff-En:   0.000D+00 0.000D+00 0.100D+01
 Coeff:      0.578D-02-0.103D-01-0.294D-01 0.779D-01 0.128D+00-0.996D-01
 Coeff:     -0.998D+00 0.132D-01 0.191D+01
 Gap=     0.362 Goal=   None    Shift=    0.000
 Gap=     0.254 Goal=   None    Shift=    0.000
 RMSDP=6.78D-04 MaxDP=1.79D-02 DE=-2.70D-04 OVMax= 5.53D-02

 Cycle  10  Pass 0  IDiag  1:
 E= -153.611279584336     Delta-E=       -0.000558278037 Rises=F Damp=F
 DIIS: error= 9.30D-04 at cycle  10 NSaved=  10.
 NSaved=10 IEnMin=10 EnMin= -153.611279584336     IErMin=10 ErrMin= 9.30D-04
 ErrMax= 9.30D-04  0.00D+00 EMaxC= 1.00D-01 BMatC= 5.44D-05 BMatP= 6.22D-05
 IDIUse=3 WtCom= 9.91D-01 WtEn= 9.30D-03
 Coeff-Com: -0.365D-02 0.112D-01-0.498D-03-0.245D-01 0.269D-01 0.238D+00
 Coeff-Com:  0.466D+00-0.153D+01-0.174D+01 0.356D+01
 Coeff-En:   0.000D+00 0.000D+00 0.000D+00 0.000D+00 0.000D+00 0.000D+00
 Coeff-En:   0.000D+00 0.000D+00 0.000D+00 0.100D+01
 Coeff:     -0.362D-02 0.111D-01-0.493D-03-0.242D-01 0.266D-01 0.236D+00
 Coeff:      0.462D+00-0.152D+01-0.172D+01 0.353D+01
 Gap=     0.362 Goal=   None    Shift=    0.000
 Gap=     0.258 Goal=   None    Shift=    0.000
 RMSDP=1.81D-03 MaxDP=5.26D-02 DE=-5.58D-04 OVMax= 1.47D-01

 Cycle  11  Pass 0  IDiag  1:
 E= -153.612559452475     Delta-E=       -0.001279868138 Rises=F Damp=F
 DIIS: error= 7.02D-04 at cycle  11 NSaved=  11.
 NSaved=11 IEnMin=11 EnMin= -153.612559452475     IErMin=11 ErrMin= 7.02D-04
 ErrMax= 7.02D-04  0.00D+00 EMaxC= 1.00D-01 BMatC= 5.31D-05 BMatP= 5.44D-05
 IDIUse=3 WtCom= 9.93D-01 WtEn= 7.02D-03
 Coeff-Com: -0.331D-02 0.999D-02-0.364D-02-0.118D-01 0.267D-01 0.934D-01
 Coeff-Com:  0.268D+00-0.569D+00-0.124D+01 0.208D+01 0.343D+00
 Coeff-En:   0.000D+00 0.000D+00 0.000D+00 0.000D+00 0.000D+00 0.000D+00
 Coeff-En:   0.000D+00 0.000D+00 0.000D+00 0.000D+00 0.100D+01
 Coeff:     -0.328D-02 0.992D-02-0.362D-02-0.117D-01 0.265D-01 0.927D-01
 Coeff:      0.266D+00-0.565D+00-0.123D+01 0.207D+01 0.347D+00
 Gap=     0.362 Goal=   None    Shift=    0.000
 Gap=     0.262 Goal=   None    Shift=    0.000
 RMSDP=1.62D-04 MaxDP=4.46D-03 DE=-1.28D-03 OVMax= 1.28D-02

 Cycle  12  Pass 0  IDiag  1:
 E= -153.612469155658     Delta-E=        0.000090296817 Rises=F Damp=F
 DIIS: error= 7.30D-04 at cycle  12 NSaved=  12.
 NSaved=12 IEnMin=11 EnMin= -153.612559452475     IErMin=11 ErrMin= 7.02D-04
 ErrMax= 7.30D-04  0.00D+00 EMaxC= 1.00D-01 BMatC= 3.95D-05 BMatP= 5.31D-05
 IDIUse=3 WtCom= 9.93D-01 WtEn= 7.02D-03
 Rare condition: small coef for last iteration:  0.000D+00
 Coeff-Com:  0.151D-02-0.102D-02 0.448D-02-0.136D-01-0.149D+00 0.945D-01
 Coeff-Com:  0.344D+00 0.544D+00-0.238D+01-0.112D+01-0.391D+01 0.759D+01
 Coeff-En:   0.000D+00 0.000D+00 0.000D+00 0.000D+00 0.000D+00 0.000D+00
 Coeff-En:   0.000D+00 0.000D+00 0.000D+00 0.000D+00 0.000D+00 0.100D+01
 Coeff:      0.151D-02-0.102D-02 0.448D-02-0.136D-01-0.149D+00 0.945D-01
 Coeff:      0.344D+00 0.544D+00-0.238D+01-0.112D+01-0.391D+01 0.759D+01
 Gap=     0.364 Goal=   None    Shift=    0.000
 Gap=     0.290 Goal=   None    Shift=    0.000
 RMSDP=3.49D-03 MaxDP=1.10D-01 DE= 9.03D-05 OVMax= 2.72D-01

 Cycle  13  Pass 0  IDiag  1:
 E= -153.613529145971     Delta-E=       -0.001059990314 Rises=F Damp=F
 DIIS: error= 2.53D-03 at cycle  13 NSaved=  13.
 NSaved=13 IEnMin=13 EnMin= -153.613529145971     IErMin=11 ErrMin= 7.02D-04
 ErrMax= 2.53D-03  0.00D+00 EMaxC= 1.00D-01 BMatC= 7.74D-04 BMatP= 3.95D-05
 IDIUse=3 WtCom= 9.93D-01 WtEn= 7.02D-03
 Coeff-Com:  0.355D-02-0.628D-02-0.171D-02 0.360D-02-0.737D-01 0.173D+00
 Coeff-Com: -0.437D-01-0.347D+00-0.134D+01-0.452D+00-0.495D+01 0.788D+01
 Coeff-Com:  0.153D+00
 Coeff-En:   0.000D+00 0.000D+00 0.000D+00 0.000D+00 0.000D+00 0.000D+00
 Coeff-En:   0.000D+00 0.000D+00 0.000D+00 0.000D+00 0.000D+00 0.000D+00
 Coeff-En:   0.100D+01
 Coeff:      0.352D-02-0.623D-02-0.170D-02 0.358D-02-0.732D-01 0.172D+00
 Coeff:     -0.434D-01-0.344D+00-0.133D+01-0.449D+00-0.491D+01 0.782D+01
 Coeff:      0.159D+00
 Gap=     0.364 Goal=   None    Shift=    0.000
 Gap=     0.334 Goal=   None    Shift=    0.000
 RMSDP=1.10D-04 MaxDP=2.82D-03 DE=-1.06D-03 OVMax= 7.76D-03

 Cycle  14  Pass 0  IDiag  1:
 E= -153.613585904977     Delta-E=       -0.000056759005 Rises=F Damp=F
 DIIS: error= 2.23D-03 at cycle  14 NSaved=  14.
 NSaved=14 IEnMin=14 EnMin= -153.613585904977     IErMin=11 ErrMin= 7.02D-04
 ErrMax= 2.23D-03  0.00D+00 EMaxC= 1.00D-01 BMatC= 6.13D-04 BMatP= 3.95D-05
 IDIUse=3 WtCom= 9.93D-01 WtEn= 7.02D-03
 Coeff-Com:  0.123D-02-0.274D-02 0.101D-01-0.981D-02-0.115D+00 0.174D+00
 Coeff-Com:  0.429D+00-0.446D+00-0.171D+01 0.196D+00-0.429D+01 0.626D+01
 Coeff-Com: -0.253D+01 0.302D+01
 Coeff-En:   0.000D+00 0.000D+00 0.000D+00 0.000D+00 0.000D+00 0.000D+00
 Coeff-En:   0.000D+00 0.000D+00 0.000D+00 0.000D+00 0.000D+00 0.000D+00
 Coeff-En:   0.000D+00 0.100D+01
 Coeff:      0.122D-02-0.272D-02 0.999D-02-0.974D-02-0.114D+00 0.173D+00
 Coeff:      0.426D+00-0.443D+00-0.170D+01 0.195D+00-0.426D+01 0.622D+01
 Coeff:     -0.251D+01 0.301D+01
 Gap=     0.363 Goal=   None    Shift=    0.000
 Gap=     0.318 Goal=   None    Shift=    0.000
 RMSDP=1.14D-04 MaxDP=1.94D-03 DE=-5.68D-05 OVMax= 4.76D-03

 Cycle  15  Pass 0  IDiag  1:
 E= -153.613704038004     Delta-E=       -0.000118133027 Rises=F Damp=F
 DIIS: error= 1.75D-03 at cycle  15 NSaved=  15.
 NSaved=15 IEnMin=15 EnMin= -153.613704038004     IErMin=11 ErrMin= 7.02D-04
 ErrMax= 1.75D-03  0.00D+00 EMaxC= 1.00D-01 BMatC= 3.79D-04 BMatP= 3.95D-05
 IDIUse=3 WtCom= 9.93D-01 WtEn= 7.02D-03
 Coeff-Com: -0.682D-03 0.188D-02 0.167D-02-0.815D-02-0.292D-01 0.295D-02
 Coeff-Com:  0.214D+00 0.189D+00-0.508D+00-0.351D+00 0.126D+00 0.377D+00
 Coeff-Com: -0.740D+00-0.270D+01 0.443D+01
 Coeff-En:   0.000D+00 0.000D+00 0.000D+00 0.000D+00 0.000D+00 0.000D+00
 Coeff-En:   0.000D+00 0.000D+00 0.000D+00 0.000D+00 0.000D+00 0.000D+00
 Coeff-En:   0.000D+00 0.000D+00 0.100D+01
 Coeff:     -0.678D-03 0.187D-02 0.166D-02-0.809D-02-0.290D-01 0.292D-02
 Coeff:      0.212D+00 0.187D+00-0.505D+00-0.349D+00 0.126D+00 0.374D+00
 Coeff:     -0.734D+00-0.268D+01 0.440D+01
 Gap=     0.362 Goal=   None    Shift=    0.000
 Gap=     0.279 Goal=   None    Shift=    0.000
 RMSDP=6.88D-04 MaxDP=1.91D-02 DE=-1.18D-04 OVMax= 5.13D-02

 Cycle  16  Pass 0  IDiag  1:
 E= -153.613936857388     Delta-E=       -0.000232819384 Rises=F Damp=F
 DIIS: error= 6.16D-04 at cycle  16 NSaved=  16.
 NSaved=16 IEnMin=16 EnMin= -153.613936857388     IErMin=16 ErrMin= 6.16D-04
 ErrMax= 6.16D-04  0.00D+00 EMaxC= 1.00D-01 BMatC= 4.41D-05 BMatP= 3.95D-05
 IDIUse=3 WtCom= 9.93D-01 WtEn= 7.02D-03
 Coeff-Com: -0.684D-03 0.174D-02-0.425D-03-0.602D-02-0.114D-01 0.309D-01
 Coeff-Com:  0.491D-01 0.133D+00-0.320D+00 0.688D-01 0.951D+00-0.823D+00
 Coeff-Com:  0.812D+00-0.166D+01 0.360D+00 0.142D+01
 Coeff-En:   0.000D+00 0.000D+00 0.000D+00 0.000D+00 0.000D+00 0.000D+00
 Coeff-En:   0.000D+00 0.000D+00 0.000D+00 0.000D+00 0.000D+00 0.000D+00
 Coeff-En:   0.000D+00 0.000D+00 0.000D+00 0.100D+01
 Coeff:     -0.679D-03 0.172D-02-0.422D-03-0.598D-02-0.113D-01 0.306D-01
 Coeff:      0.488D-01 0.132D+00-0.318D+00 0.684D-01 0.944D+00-0.817D+00
 Coeff:      0.806D+00-0.165D+01 0.357D+00 0.142D+01
 Gap=     0.362 Goal=   None    Shift=    0.000
 Gap=     0.263 Goal=   None    Shift=    0.000
 RMSDP=3.66D-04 MaxDP=9.59D-03 DE=-2.33D-04 OVMax= 2.81D-02

 Cycle  17  Pass 0  IDiag  1:
 E= -153.613972615693     Delta-E=       -0.000035758306 Rises=F Damp=F
 DIIS: error= 1.32D-04 at cycle  17 NSaved=  17.
 NSaved=17 IEnMin=17 EnMin= -153.613972615693     IErMin=17 ErrMin= 1.32D-04
 ErrMax= 1.32D-04  0.00D+00 EMaxC= 1.00D-01 BMatC= 1.97D-06 BMatP= 3.95D-05
 IDIUse=3 WtCom= 9.99D-01 WtEn= 1.32D-03
 Coeff-Com:  0.132D-03-0.189D-03 0.549D-03 0.186D-02-0.139D-01 0.915D-02
 Coeff-Com:  0.670D-02 0.123D+00-0.130D+00 0.255D-01-0.874D-01 0.779D-01
 Coeff-Com: -0.137D+00 0.690D+00-0.633D+00-0.405D+00 0.147D+01
 Coeff-En:   0.000D+00 0.000D+00 0.000D+00 0.000D+00 0.000D+00 0.000D+00
 Coeff-En:   0.000D+00 0.000D+00 0.000D+00 0.000D+00 0.000D+00 0.000D+00
 Coeff-En:   0.000D+00 0.000D+00 0.000D+00 0.000D+00 0.100D+01
 Coeff:      0.132D-03-0.189D-03 0.548D-03 0.186D-02-0.139D-01 0.914D-02
 Coeff:      0.669D-02 0.123D+00-0.130D+00 0.254D-01-0.873D-01 0.778D-01
 Coeff:     -0.137D+00 0.689D+00-0.633D+00-0.405D+00 0.147D+01
 Gap=     0.362 Goal=   None    Shift=    0.000
 Gap=     0.255 Goal=   None    Shift=    0.000
 RMSDP=9.43D-05 MaxDP=1.87D-03 DE=-3.58D-05 OVMax= 6.18D-03

 Cycle  18  Pass 0  IDiag  1:
 E= -153.613973803948     Delta-E=       -0.000001188255 Rises=F Damp=F
 DIIS: error= 1.09D-04 at cycle  18 NSaved=  18.
 NSaved=18 IEnMin=18 EnMin= -153.613973803948     IErMin=18 ErrMin= 1.09D-04
 ErrMax= 1.09D-04  0.00D+00 EMaxC= 1.00D-01 BMatC= 1.30D-06 BMatP= 1.97D-06
 IDIUse=3 WtCom= 9.99D-01 WtEn= 1.09D-03
 Coeff-Com:  0.978D-04-0.956D-04-0.323D-03 0.469D-03 0.207D-02-0.651D-03
 Coeff-Com: -0.239D-01 0.419D-02 0.532D-01-0.422D-02-0.376D-01-0.224D-01
 Coeff-Com:  0.979D-01-0.171D+00 0.130D+00 0.127D+00-0.288D+00 0.113D+01
 Coeff-En:   0.000D+00 0.000D+00 0.000D+00 0.000D+00 0.000D+00 0.000D+00
 Coeff-En:   0.000D+00 0.000D+00 0.000D+00 0.000D+00 0.000D+00 0.000D+00
 Coeff-En:   0.000D+00 0.000D+00 0.000D+00 0.000D+00 0.000D+00 0.100D+01
 Coeff:      0.977D-04-0.955D-04-0.323D-03 0.469D-03 0.207D-02-0.651D-03
 Coeff:     -0.239D-01 0.418D-02 0.532D-01-0.422D-02-0.376D-01-0.224D-01
 Coeff:      0.978D-01-0.171D+00 0.129D+00 0.127D+00-0.288D+00 0.113D+01
 Gap=     0.362 Goal=   None    Shift=    0.000
 Gap=     0.258 Goal=   None    Shift=    0.000
 RMSDP=2.00D-05 MaxDP=2.95D-04 DE=-1.19D-06 OVMax= 5.79D-04

 Cycle  19  Pass 0  IDiag  1:
 E= -153.613974398944     Delta-E=       -0.000000594995 Rises=F Damp=F
 DIIS: error= 1.42D-05 at cycle  19 NSaved=  19.
 NSaved=19 IEnMin=19 EnMin= -153.613974398944     IErMin=19 ErrMin= 1.42D-05
 ErrMax= 1.42D-05  0.00D+00 EMaxC= 1.00D-01 BMatC= 2.49D-08 BMatP= 1.30D-06
 IDIUse=1 WtCom= 1.00D+00 WtEn= 0.00D+00
 Coeff-Com: -0.437D-04 0.774D-04 0.580D-04-0.128D-03 0.147D-03 0.447D-03
 Coeff-Com:  0.268D-02-0.787D-02-0.357D-02 0.151D-01-0.212D-02-0.926D-02
 Coeff-Com: -0.945D-02-0.655D-02 0.264D-01 0.114D-01-0.569D-01-0.909D-01
 Coeff-Com:  0.113D+01
 Coeff:     -0.437D-04 0.774D-04 0.580D-04-0.128D-03 0.147D-03 0.447D-03
 Coeff:      0.268D-02-0.787D-02-0.357D-02 0.151D-01-0.212D-02-0.926D-02
 Coeff:     -0.945D-02-0.655D-02 0.264D-01 0.114D-01-0.569D-01-0.909D-01
 Coeff:      0.113D+01
 Gap=     0.362 Goal=   None    Shift=    0.000
 Gap=     0.259 Goal=   None    Shift=    0.000
 RMSDP=4.33D-06 MaxDP=8.37D-05 DE=-5.95D-07 OVMax= 1.86D-04

 Initial convergence to 1.0D-05 achieved.  Increase integral accuracy.
 Cycle  20  Pass 1  IDiag  1:
 E= -153.613960373383     Delta-E=        0.000014025561 Rises=F Damp=F
 DIIS: error= 3.21D-05 at cycle   1 NSaved=   1.
 NSaved= 1 IEnMin= 1 EnMin= -153.613960373383     IErMin= 1 ErrMin= 3.21D-05
 ErrMax= 3.21D-05  0.00D+00 EMaxC= 1.00D-01 BMatC= 1.68D-07 BMatP= 1.68D-07
 IDIUse=1 WtCom= 1.00D+00 WtEn= 0.00D+00
 Coeff-Com:  0.100D+01
 Coeff:      0.100D+01
 Gap=     0.362 Goal=   None    Shift=    0.000
 Gap=     0.259 Goal=   None    Shift=    0.000
 RMSDP=4.33D-06 MaxDP=8.37D-05 DE= 1.40D-05 OVMax= 6.32D-05

 Cycle  21  Pass 1  IDiag  1:
 E= -153.613960422792     Delta-E=       -0.000000049410 Rises=F Damp=F
 DIIS: error= 4.82D-06 at cycle   2 NSaved=   2.
 NSaved= 2 IEnMin= 2 EnMin= -153.613960422792     IErMin= 2 ErrMin= 4.82D-06
 ErrMax= 4.82D-06  0.00D+00 EMaxC= 1.00D-01 BMatC= 7.23D-09 BMatP= 1.68D-07
 IDIUse=1 WtCom= 1.00D+00 WtEn= 0.00D+00
 Coeff-Com: -0.854D-01 0.109D+01
 Coeff:     -0.854D-01 0.109D+01
 Gap=     0.362 Goal=   None    Shift=    0.000
 Gap=     0.259 Goal=   None    Shift=    0.000
 RMSDP=1.35D-06 MaxDP=1.37D-05 DE=-4.94D-08 OVMax= 2.27D-05

 Cycle  22  Pass 1  IDiag  1:
 E= -153.613960425477     Delta-E=       -0.000000002684 Rises=F Damp=F
 DIIS: error= 3.32D-06 at cycle   3 NSaved=   3.
 NSaved= 3 IEnMin= 3 EnMin= -153.613960425477     IErMin= 3 ErrMin= 3.32D-06
 ErrMax= 3.32D-06  0.00D+00 EMaxC= 1.00D-01 BMatC= 2.55D-09 BMatP= 7.23D-09
 IDIUse=1 WtCom= 1.00D+00 WtEn= 0.00D+00
 Coeff-Com: -0.654D-01 0.394D+00 0.671D+00
 Coeff:     -0.654D-01 0.394D+00 0.671D+00
 Gap=     0.362 Goal=   None    Shift=    0.000
 Gap=     0.259 Goal=   None    Shift=    0.000
 RMSDP=4.35D-07 MaxDP=6.70D-06 DE=-2.68D-09 OVMax= 1.29D-05

 Cycle  23  Pass 1  IDiag  1:
 E= -153.613960426190     Delta-E=       -0.000000000713 Rises=F Damp=F
 DIIS: error= 8.02D-07 at cycle   4 NSaved=   4.
 NSaved= 4 IEnMin= 4 EnMin= -153.613960426190     IErMin= 4 ErrMin= 8.02D-07
 ErrMax= 8.02D-07  0.00D+00 EMaxC= 1.00D-01 BMatC= 2.77D-10 BMatP= 2.55D-09
 IDIUse=1 WtCom= 1.00D+00 WtEn= 0.00D+00
 Coeff-Com: -0.414D-02-0.569D-01 0.176D+00 0.885D+00
 Coeff:     -0.414D-02-0.569D-01 0.176D+00 0.885D+00
 Gap=     0.362 Goal=   None    Shift=    0.000
 Gap=     0.259 Goal=   None    Shift=    0.000
 RMSDP=2.01D-07 MaxDP=2.91D-06 DE=-7.13D-10 OVMax= 3.89D-06

 Cycle  24  Pass 1  IDiag  1:
 E= -153.613960426287     Delta-E=       -0.000000000098 Rises=F Damp=F
 DIIS: error= 3.36D-07 at cycle   5 NSaved=   5.
 NSaved= 5 IEnMin= 5 EnMin= -153.613960426287     IErMin= 5 ErrMin= 3.36D-07
 ErrMax= 3.36D-07  0.00D+00 EMaxC= 1.00D-01 BMatC= 4.31D-11 BMatP= 2.77D-10
 IDIUse=1 WtCom= 1.00D+00 WtEn= 0.00D+00
 Coeff-Com:  0.714D-02-0.793D-01-0.126D-01 0.323D+00 0.762D+00
 Coeff:      0.714D-02-0.793D-01-0.126D-01 0.323D+00 0.762D+00
 Gap=     0.362 Goal=   None    Shift=    0.000
 Gap=     0.259 Goal=   None    Shift=    0.000
 RMSDP=7.80D-08 MaxDP=1.07D-06 DE=-9.77D-11 OVMax= 3.33D-06

 Cycle  25  Pass 1  IDiag  1:
 E= -153.613960426304     Delta-E=       -0.000000000017 Rises=F Damp=F
 DIIS: error= 9.52D-08 at cycle   6 NSaved=   6.
 NSaved= 6 IEnMin= 6 EnMin= -153.613960426304     IErMin= 6 ErrMin= 9.52D-08
 ErrMax= 9.52D-08  0.00D+00 EMaxC= 1.00D-01 BMatC= 4.47D-12 BMatP= 4.31D-11
 IDIUse=1 WtCom= 1.00D+00 WtEn= 0.00D+00
 Coeff-Com:  0.160D-02-0.710D-02-0.185D-01-0.657D-01 0.137D+00 0.953D+00
 Coeff:      0.160D-02-0.710D-02-0.185D-01-0.657D-01 0.137D+00 0.953D+00
 Gap=     0.362 Goal=   None    Shift=    0.000
 Gap=     0.259 Goal=   None    Shift=    0.000
 RMSDP=3.52D-08 MaxDP=6.38D-07 DE=-1.70D-11 OVMax= 1.24D-06

 Cycle  26  Pass 1  IDiag  1:
 E= -153.613960426307     Delta-E=       -0.000000000003 Rises=F Damp=F
 DIIS: error= 7.01D-08 at cycle   7 NSaved=   7.
 NSaved= 7 IEnMin= 7 EnMin= -153.613960426307     IErMin= 7 ErrMin= 7.01D-08
 ErrMax= 7.01D-08  0.00D+00 EMaxC= 1.00D-01 BMatC= 4.71D-13 BMatP= 4.47D-12
 IDIUse=1 WtCom= 1.00D+00 WtEn= 0.00D+00
 Coeff-Com: -0.105D-02 0.119D-01 0.319D-02-0.587D-01-0.102D+00 0.259D-01
 Coeff-Com:  0.112D+01
 Coeff:     -0.105D-02 0.119D-01 0.319D-02-0.587D-01-0.102D+00 0.259D-01
 Coeff:      0.112D+01
 Gap=     0.362 Goal=   None    Shift=    0.000
 Gap=     0.259 Goal=   None    Shift=    0.000
 RMSDP=1.61D-08 MaxDP=2.18D-07 DE=-3.01D-12 OVMax= 8.81D-07

 Cycle  27  Pass 1  IDiag  1:
 E= -153.613960426308     Delta-E=       -0.000000000000 Rises=F Damp=F
 DIIS: error= 2.31D-08 at cycle   8 NSaved=   8.
 NSaved= 8 IEnMin= 8 EnMin= -153.613960426308     IErMin= 8 ErrMin= 2.31D-08
 ErrMax= 2.31D-08  0.00D+00 EMaxC= 1.00D-01 BMatC= 9.12D-14 BMatP= 4.71D-13
 IDIUse=1 WtCom= 1.00D+00 WtEn= 0.00D+00
 Coeff-Com: -0.279D-03 0.200D-02 0.310D-02 0.463D-03-0.230D-01-0.117D+00
 Coeff-Com:  0.149D+00 0.986D+00
 Coeff:     -0.279D-03 0.200D-02 0.310D-02 0.463D-03-0.230D-01-0.117D+00
 Coeff:      0.149D+00 0.986D+00
 Gap=     0.362 Goal=   None    Shift=    0.000
 Gap=     0.259 Goal=   None    Shift=    0.000
 RMSDP=6.56D-09 MaxDP=1.22D-07 DE=-2.56D-13 OVMax= 3.37D-07

 SCF Done:  E(UM062X) =  -153.613960426     A.U. after   27 cycles
            NFock= 27  Conv=0.66D-08     -V/T= 2.0051
 <Sx>= 0.0000 <Sy>= 0.0000 <Sz>= 1.0000 <S**2>= 2.0112 S= 1.0037
 <L.S>= 0.000000000000E+00
 KE= 1.528368271475D+02 PE=-4.966483813524D+02 EE= 1.215323719839D+02
 Annihilation of the first spin contaminant:
 S**2 before annihilation     2.0112,   after     2.0001
 Leave Link  502 at Mon Aug 16 22:45:24 2021, MaxMem=   134217728 cpu:        55.2
 (Enter /soft/gaussian/09-e.01/g09/l508.exe)
 QCSCF skips out because SCF is already converged.
 Leave Link  508 at Mon Aug 16 22:45:24 2021, MaxMem=   134217728 cpu:         0.0
 (Enter /soft/gaussian/09-e.01/g09/l601.exe)
 Copying SCF densities to generalized density rwf, IOpCl= 1 IROHF=0.

 **********************************************************************

            Population analysis using the SCF density.

 **********************************************************************

 Alpha  occ. eigenvalues --  -19.67785 -10.61390 -10.56369  -1.17871  -0.85621
 Alpha  occ. eigenvalues --   -0.68615  -0.57198  -0.56105  -0.52574  -0.47064
 Alpha  occ. eigenvalues --   -0.40200  -0.36749  -0.25401
 Alpha virt. eigenvalues --    0.10806   0.14221   0.15131   0.18043   0.25082
 Alpha virt. eigenvalues --    0.29291   0.46576   0.51066   0.52458   0.54922
 Alpha virt. eigenvalues --    0.59568   0.65407   0.67555   0.68366   0.70256
 Alpha virt. eigenvalues --    0.72851   0.88437   0.91202   0.91945   1.01654
 Alpha virt. eigenvalues --    1.08538   1.11877   1.16780   1.24117   1.43497
 Alpha virt. eigenvalues --    1.48285   1.51030   1.57678   1.58542   1.64269
 Alpha virt. eigenvalues --    1.67741   1.73175   1.79088   1.82768   1.85283
 Alpha virt. eigenvalues --    1.90849   1.98838   2.08651   2.18386   2.19662
 Alpha virt. eigenvalues --    2.31897   2.38991   2.53515   2.64282   2.70872
 Alpha virt. eigenvalues --    2.77567   3.09389   3.24768   3.35222
  Beta  occ. eigenvalues --  -19.66332 -10.61516 -10.55601  -1.12313  -0.81600
  Beta  occ. eigenvalues --   -0.65289  -0.54492  -0.50903  -0.48095  -0.45544
  Beta  occ. eigenvalues --   -0.33924
  Beta virt. eigenvalues --   -0.08055   0.00602   0.10168   0.14596   0.15170
  Beta virt. eigenvalues --    0.18688   0.25312   0.30300   0.46899   0.52837
  Beta virt. eigenvalues --    0.54011   0.58101   0.60296   0.64618   0.68722
  Beta virt. eigenvalues --    0.70533   0.72675   0.73818   0.91060   0.92308
  Beta virt. eigenvalues --    0.94888   1.06318   1.11359   1.14439   1.18063
  Beta virt. eigenvalues --    1.24610   1.44940   1.49875   1.53187   1.59190
  Beta virt. eigenvalues --    1.60803   1.65154   1.68397   1.74767   1.80787
  Beta virt. eigenvalues --    1.84824   1.87490   1.92826   2.00501   2.10080
  Beta virt. eigenvalues --    2.20441   2.21207   2.33486   2.40378   2.56965
  Beta virt. eigenvalues --    2.67546   2.75694   2.82693   3.13018   3.26418
  Beta virt. eigenvalues --    3.37765
          Condensed to atoms (all electrons):
               1          2          3          4          5          6
     1  O    7.846517   0.443728  -0.049924  -0.040869  -0.028770   0.002371
     2  C    0.443728   4.389430   0.396413   0.383809   0.339793  -0.017561
     3  C   -0.049924   0.396413   5.181539  -0.063920  -0.079104   0.377949
     4  H   -0.040869   0.383809  -0.063920   0.728941  -0.041844   0.008221
     5  H   -0.028770   0.339793  -0.079104  -0.041844   0.721146   0.000585
     6  H    0.002371  -0.017561   0.377949   0.008221   0.000585   0.595641
     7  H    0.003123  -0.011642   0.374342  -0.002075  -0.000566  -0.029779
               7
     1  O    0.003123
     2  C   -0.011642
     3  C    0.374342
     4  H   -0.002075
     5  H   -0.000566
     6  H   -0.029779
     7  H    0.608225
          Atomic-Atomic Spin Densities.
               1          2          3          4          5          6
     1  O    0.940467  -0.037585  -0.001496   0.002604  -0.036708   0.000109
     2  C   -0.037585  -0.104596  -0.036491   0.010587   0.051846  -0.000045
     3  C   -0.001496  -0.036491   1.229410   0.003374  -0.102774   0.003974
     4  H    0.002604   0.010587   0.003374   0.044796  -0.033691  -0.000390
     5  H   -0.036708   0.051846  -0.102774  -0.033691   0.333654  -0.000569
     6  H    0.000109  -0.000045   0.003974  -0.000390  -0.000569  -0.051850
     7  H   -0.000106  -0.001453   0.002845  -0.001040   0.003180   0.002642
               7
     1  O   -0.000106
     2  C   -0.001453
     3  C    0.002845
     4  H   -0.001040
     5  H    0.003180
     6  H    0.002642
     7  H   -0.049510
 Mulliken charges and spin densities:
               1          2
     1  O   -0.176176   0.867286
     2  C    0.076029  -0.117738
     3  C   -0.137295   1.098842
     4  H    0.027735   0.026241
     5  H    0.088762   0.214939
     6  H    0.062573  -0.046129
     7  H    0.058372  -0.043442
 Sum of Mulliken charges =  -0.00000   2.00000
 Mulliken charges and spin densities with hydrogens summed into heavy atoms:
               1          2
     1  O   -0.176176   0.867286
     2  C    0.192526   0.123442
     3  C   -0.016350   1.009272
 Electronic spatial extent (au):  <R**2>=            165.9095
 Charge=             -0.0000 electrons
 Dipole moment (field-independent basis, Debye):
    X=             -1.5907    Y=              1.0105    Z=              0.3223  Tot=              1.9119
 Quadrupole moment (field-independent basis, Debye-Ang):
   XX=            -20.2776   YY=            -17.7239   ZZ=            -18.5147
   XY=              0.1232   XZ=             -0.3393   YZ=             -0.0187
 Traceless Quadrupole moment (field-independent basis, Debye-Ang):
   XX=             -1.4388   YY=              1.1148   ZZ=              0.3240
   XY=              0.1232   XZ=             -0.3393   YZ=             -0.0187
 Octapole moment (field-independent basis, Debye-Ang**2):
  XXX=              2.6430  YYY=             -2.7411  ZZZ=              0.7288  XYY=              1.4274
  XXY=              0.6570  XXZ=              0.2703  XZZ=              3.7570  YZZ=             -0.1216
  YYZ=              0.2754  XYZ=              0.8247
 Hexadecapole moment (field-independent basis, Debye-Ang**3):
 XXXX=           -138.1056 YYYY=            -44.7297 ZZZZ=            -25.6091 XXXY=             -5.4212
 XXXZ=              0.4134 YYYX=             -1.9532 YYYZ=              0.6347 ZZZX=             -1.0380
 ZZZY=              2.2099 XXYY=            -30.2541 XXZZ=            -28.7339 YYZZ=            -11.5013
 XXYZ=              0.0039 YYXZ=             -1.2740 ZZXY=             -1.4887
 N-N= 6.866522179471D+01 E-N=-4.966483813257D+02  KE= 1.528368271475D+02
                          Isotropic Fermi Contact Couplings
        Atom                 a.u.       MegaHertz       Gauss      10(-4) cm-1
     1  O(17)              0.13898     -42.12485     -15.03119     -14.05134
     2  C(13)             -0.05990     -33.67070     -12.01454     -11.23134
     3  C(13)              0.18594     104.51443      37.29335      34.86226
     4  H(1)               0.01438      32.12911      11.46447      10.71712
     5  H(1)               0.09533     213.06328      76.02627      71.07026
     6  H(1)              -0.01466     -32.77156     -11.69371     -10.93142
     7  H(1)              -0.01422     -31.78522     -11.34176     -10.60241
 --------------------------------------------------------
       Center         ----  Spin Dipole Couplings  ----
                      3XX-RR        3YY-RR        3ZZ-RR
 --------------------------------------------------------
     1   Atom       -1.472135     -0.521517      1.993653
     2   Atom        0.043632     -0.033816     -0.009815
     3   Atom       -0.484236     -0.406084      0.890320
     4   Atom       -0.003384      0.012877     -0.009493
     5   Atom        0.009775     -0.004877     -0.004897
     6   Atom       -0.066100      0.069675     -0.003574
     7   Atom        0.041688     -0.026881     -0.014807
 --------------------------------------------------------
                        XY            XZ            YZ
 --------------------------------------------------------
     1   Atom        0.372001      0.669936      1.987324
     2   Atom       -0.027376      0.022016      0.010697
     3   Atom        0.019112     -0.020391      0.442889
     4   Atom        0.003005     -0.000819     -0.015811
     5   Atom        0.005092     -0.002366      0.020515
     6   Atom        0.014020     -0.005096     -0.029323
     7   Atom       -0.070907      0.019383      0.007540
 --------------------------------------------------------


 ---------------------------------------------------------------------------------
              Anisotropic Spin Dipole Couplings in Principal Axis System
 ---------------------------------------------------------------------------------

       Atom             a.u.   MegaHertz   Gauss  10(-4) cm-1        Axes

              Baa    -1.6161   116.942    41.728    39.008 -0.1418  0.8780 -0.4571
     1 O(17)  Bbb    -1.5971   115.563    41.236    38.548  0.9766  0.0488 -0.2092
              Bcc     3.2132  -232.505   -82.963   -77.555  0.1614  0.4761  0.8645
 
              Baa    -0.0501    -6.729    -2.401    -2.245  0.3431  0.8445 -0.4113
     2 C(13)  Bbb    -0.0071    -0.951    -0.339    -0.317 -0.1224  0.4743  0.8718
              Bcc     0.0572     7.680     2.741     2.562  0.9313 -0.2487  0.2661
 
              Baa    -0.5517   -74.032   -26.417   -24.694 -0.3392  0.8979 -0.2806
     3 C(13)  Bbb    -0.4756   -63.822   -22.773   -21.289  0.9407  0.3266 -0.0919
              Bcc     1.0273   137.854    49.190    45.983 -0.0092  0.2951  0.9554
 
              Baa    -0.0177    -9.447    -3.371    -3.151 -0.0464  0.4623  0.8855
     4 H(1)   Bbb    -0.0037    -1.989    -0.710    -0.663  0.9915 -0.0868  0.0972
              Bcc     0.0214    11.436     4.081     3.815  0.1218  0.8824 -0.4544
 
              Baa    -0.0262   -13.967    -4.984    -4.659 -0.1455  0.7041 -0.6950
     5 H(1)   Bbb     0.0099     5.288     1.887     1.764  0.9382 -0.1248 -0.3228
              Bcc     0.0163     8.679     3.097     2.895  0.3141  0.6990  0.6425
 
              Baa    -0.0676   -36.073   -12.872   -12.033  0.9949 -0.0939  0.0362
     6 H(1)   Bbb    -0.0139    -7.398    -2.640    -2.468 -0.0030  0.3316  0.9434
              Bcc     0.0815    43.471    15.512    14.500  0.1006  0.9387 -0.3297
 
              Baa    -0.0760   -40.540   -14.466   -13.523  0.5293  0.8054 -0.2670
     7 H(1)   Bbb    -0.0117    -6.250    -2.230    -2.085  0.0394  0.2910  0.9559
              Bcc     0.0877    46.789    16.696    15.607  0.8475 -0.5165  0.1223
 

 ---------------------------------------------------------------------------------

 No NMR shielding tensors so no spin-rotation constants.
 Leave Link  601 at Mon Aug 16 22:45:25 2021, MaxMem=   134217728 cpu:         2.7
 (Enter /soft/gaussian/09-e.01/g09/l701.exe)
 Compute integral first derivatives.
 ... and contract with generalized density number  0.
 Leave Link  701 at Mon Aug 16 22:45:25 2021, MaxMem=   134217728 cpu:         1.4
 (Enter /soft/gaussian/09-e.01/g09/l702.exe)
 L702 exits ... SP integral derivatives will be done elsewhere.
 Leave Link  702 at Mon Aug 16 22:45:25 2021, MaxMem=   134217728 cpu:         0.1
 (Enter /soft/gaussian/09-e.01/g09/l703.exe)
 Compute integral first derivatives, UseDBF=F ICtDFT=           0.
 Integral derivatives from FoFJK, PRISM(SPDF).
 Calling FoFJK, ICntrl=      2127 FMM=F ISym2X=0 I1Cent= 0 IOpClX= 1 NMat=1 NMatS=1 NMatT=0.
 FoFJK:  IHMeth= 1 ICntrl=    2127 DoSepK=F KAlg= 0 I1Cent=   0 FoldK=F
 IRaf=         0 NMat=   1 IRICut=       1 DoRegI=T DoRafI=F ISym2E= 0.
 FoFCou: FMM=F IPFlag=           0 FMFlag=      100000 FMFlg1=         800
         NFxFlg=           0 DoJE=F BraDBF=F KetDBF=F FulRan=T
         wScrn=  0.000000 ICntrl=    2127 IOpCl=  1 I1Cent=           0 NGrid=           0
         NMat0=    1 NMatS0=      1 NMatT0=    0 NMatD0=    1 NMtDS0=    0 NMtDT0=    0
 Symmetry not used in FoFCou.
 Leave Link  703 at Mon Aug 16 22:45:25 2021, MaxMem=   134217728 cpu:         4.8
 (Enter /soft/gaussian/09-e.01/g09/l716.exe)
 Dipole        =-6.25842743D-01 3.97565021D-01 1.26787642D-01
 -------------------------------------------------------------------
 Center     Atomic                   Forces (Hartrees/Bohr)
 Number     Number              X              Y              Z
 -------------------------------------------------------------------
      1        8           0.022242792   -0.024290649   -0.002574401
      2        6          -0.031781944    0.053818588    0.027744175
      3        6          -0.017566054   -0.030432866   -0.014828024
      4        1           0.003385396   -0.005965994   -0.002912487
      5        1           0.021870363    0.006189754   -0.005550275
      6        1          -0.000428946    0.001391538   -0.000264538
      7        1           0.002278392   -0.000710370   -0.001614449
 -------------------------------------------------------------------
 Cartesian Forces:  Max     0.053818588 RMS     0.019316577
 Z-matrix is all fixed cartesians, so copy forces.
 Force constants in Cartesian coordinates: 
                1             2             3             4             5 
      1  0.490570D+00
      2 -0.258961D+00  0.214576D+00
      3  0.392050D-01 -0.322523D-01  0.472658D-01
      4 -0.497292D+00  0.246842D+00 -0.450673D-01  0.962282D+00
      5  0.245037D+00 -0.236470D+00  0.399758D-01 -0.176333D+00  0.741681D+00
      6 -0.355051D-01  0.348443D-01 -0.692841D-01  0.219135D-02 -0.930547D-01
      7 -0.867404D-02 -0.142968D-01  0.741632D-03 -0.314725D+00 -0.884980D-01
      8  0.168707D-01  0.278712D-01 -0.104273D-02 -0.872434D-01 -0.187373D+00
      9 -0.202091D-02 -0.252464D-02  0.516314D-02  0.981144D-02  0.247882D-01
     10  0.130645D-01  0.186635D-01 -0.188795D-01 -0.911325D-01  0.828283D-02
     11 -0.193906D-02 -0.234479D-02  0.543431D-02  0.580765D-02 -0.235195D+00
     12 -0.255317D-02 -0.308858D-02  0.714810D-02  0.753716D-02  0.110063D+00
     13  0.233770D-02  0.771931D-02  0.237299D-01 -0.643622D-01  0.212711D-01
     14 -0.101914D-02 -0.356783D-02 -0.115988D-01  0.221333D-01 -0.104795D+00
     15  0.878285D-03  0.299878D-02  0.952568D-02  0.242095D-01 -0.810094D-01
     16 -0.935984D-05  0.517435D-04  0.416546D-03  0.121667D-01 -0.231559D-01
     17  0.236168D-04 -0.130560D-03 -0.105103D-02 -0.569189D-03  0.139347D-02
     18  0.653905D-04 -0.361495D-03 -0.291011D-02  0.418489D-03  0.828680D-04
     19  0.328659D-05 -0.181691D-04 -0.146265D-03 -0.693760D-02  0.133962D-01
     20 -0.120177D-04  0.664368D-04  0.534829D-03 -0.106367D-01  0.207590D-01
     21 -0.694659D-04  0.384025D-03  0.309148D-02  0.899336D-03 -0.846079D-03
                6             7             8             9            10 
      6  0.506936D+00
      7 -0.398778D-02  0.695229D+00
      8  0.179516D-01  0.925271D-02  0.642612D+00
      9 -0.778489D-01  0.149166D-01 -0.144829D+00  0.192006D+00
     10  0.589981D-02  0.976279D-02 -0.178597D-01  0.163640D-01  0.679440D-01
     11  0.127358D+00  0.125753D-02 -0.201238D-02  0.570460D-02 -0.440761D-02
     12 -0.151626D+00  0.164829D-02 -0.263679D-02  0.748875D-02 -0.568806D-02
     13  0.250574D-01  0.433591D-02 -0.101866D-01 -0.208812D-01  0.282985D-03
     14 -0.889513D-01  0.167591D-02 -0.414266D-02 -0.106347D-01 -0.452959D-02
     15 -0.230955D+00 -0.106972D-03  0.351278D-03  0.176317D-02  0.225124D-02
     16  0.917369D-02 -0.107993D+00 -0.204718D-01  0.717509D-02  0.120551D-03
     17  0.344329D-02 -0.125263D-01 -0.309138D+00  0.939232D-01 -0.304174D-03
     18  0.112940D-01  0.424955D-02  0.101227D+00 -0.785792D-01 -0.842201D-03
     19 -0.282934D-02 -0.277936D+00  0.109638D+00 -0.253650D-01 -0.423299D-04
     20 -0.159125D-02  0.103135D+00 -0.167816D+00  0.335724D-01  0.154783D-03
     21  0.114844D-01 -0.174613D-01  0.289783D-01 -0.499927D-01  0.894692D-03
               11            12            13            14            15 
     11  0.220609D+00
     12 -0.129230D+00  0.149166D+00
     13 -0.546843D-03 -0.718634D-03  0.575153D-01
     14  0.186157D-01  0.244617D-01 -0.184666D-01  0.942832D-01
     15 -0.915139D-02 -0.120253D-01 -0.271138D-01  0.865849D-01  0.231771D+00
     16 -0.264563D-03 -0.347669D-03 -0.169171D-03  0.317589D-03 -0.182257D-03
     17  0.667548D-03  0.877241D-03  0.426853D-03 -0.801342D-03  0.459871D-03
     18  0.184831D-02  0.242891D-02  0.118187D-02 -0.221877D-02  0.127330D-02
     19  0.928983D-04  0.122080D-03  0.594023D-04 -0.111518D-03  0.639973D-04
     20 -0.339690D-03 -0.446394D-03 -0.217209D-03  0.407772D-03 -0.234011D-03
     21 -0.196351D-02 -0.258030D-02 -0.125553D-02  0.235705D-02 -0.135266D-02
               16            17            18            19            20 
     16  0.754136D-01
     17  0.144343D-01  0.309349D+00
     18 -0.428212D-02 -0.101639D+00  0.571871D-01
     19  0.204711D-01 -0.148507D-02 -0.790980D-03  0.264382D+00
     20  0.290887D-01 -0.133951D-02  0.106104D-02 -0.121512D+00  0.148262D+00
     21 -0.119533D-01  0.398676D-02  0.930600D-02  0.289455D-01 -0.328966D-01
               21 
     21  0.300437D-01
 Leave Link  716 at Mon Aug 16 22:45:25 2021, MaxMem=   134217728 cpu:         0.2
 (Enter /soft/gaussian/09-e.01/g09/l103.exe)

 GradGradGradGradGradGradGradGradGradGradGradGradGradGradGradGradGradGrad
 Berny optimization.
 Search for a local minimum.
 Step number   1 out of a maximum of    2
 All quantities printed in internal units (Hartrees-Bohrs-Radians)
 Second derivative matrix not updated -- first step.
 ITU=  0
     Eigenvalues ---    0.01589   0.03927   0.04156   0.07082   0.08539
     Eigenvalues ---    0.10315   0.14333   0.16047   0.17763   0.28995
     Eigenvalues ---    0.54181   0.68049   0.86908   1.09144   1.59858
 Quadratic step=6.452D-01 exceeds max=3.000D-01 adjusted using Lamda=-5.392D-02.
 Angle between NR and scaled steps=  13.27 degrees.
 Angle between quadratic step and forces=  54.69 degrees.
 Linear search not attempted -- first point.
 B after Tr=    -0.015891   -0.005173    0.000031
         Rot=    0.999993   -0.003652   -0.000011    0.000429 Ang=  -0.42 deg.
 Variable       Old X    -DE/DX   Delta X   Delta X   Delta X     New X
                                 (Linear)    (Quad)   (Total)
    X1        2.26202   0.02224   0.00000  -0.02198  -0.03829   2.22373
    Y1       -0.44601  -0.02429   0.00000  -0.03753  -0.04491  -0.49092
    Z1        0.06758  -0.00257   0.00000  -0.02767  -0.03123   0.03635
    X2        0.15137  -0.03178   0.00000  -0.02355  -0.03867   0.11270
    Y2        0.82390   0.05382   0.00000   0.07538   0.07044   0.89434
    Z2       -0.13760   0.02774   0.00000   0.08822   0.09482  -0.04278
    X3       -2.31863  -0.01757   0.00000  -0.02394  -0.04025  -2.35888
    Y3       -0.43398  -0.03043   0.00000  -0.05242  -0.05501  -0.48898
    Z3       -0.03685  -0.01483   0.00000  -0.04024  -0.04370  -0.08055
    X4        0.15085   0.00339   0.00000   0.01160  -0.00218   0.14867
    Y4        2.50321  -0.00597   0.00000  -0.01535  -0.01026   2.49295
    Z4       -1.41567  -0.00291   0.00000  -0.01746   0.00077  -1.41490
    X5       -0.16741   0.02187   0.00000   0.18591   0.17171   0.00430
    Y5        1.77312   0.00619   0.00000   0.15331   0.13451   1.90763
    Z5        1.81233  -0.00555   0.00000   0.04412   0.05817   1.87050
    X6       -2.43308  -0.00043   0.00000  -0.00302  -0.02096  -2.45405
    Y6       -2.37670   0.00139   0.00000  -0.03271  -0.04041  -2.41710
    Z6        0.64841  -0.00026   0.00000  -0.00701  -0.02453   0.62389
    X7       -4.04138   0.00228   0.00000  -0.01598  -0.03135  -4.07273
    Y7        0.66666  -0.00071   0.00000  -0.05535  -0.05437   0.61229
    Z7       -0.30877  -0.00161   0.00000  -0.05892  -0.05431  -0.36307
         Item               Value     Threshold  Converged?
 Maximum Force            0.053819     0.000450     NO 
 RMS     Force            0.019317     0.000300     NO 
 Maximum Displacement     0.171706     0.001800     NO 
 RMS     Displacement     0.064400     0.001200     NO 
 Predicted change in Energy=-1.011849D-02
 GradGradGradGradGradGradGradGradGradGradGradGradGradGradGradGradGradGrad

 Leave Link  103 at Mon Aug 16 22:45:25 2021, MaxMem=   134217728 cpu:         0.1
 (Enter /soft/gaussian/09-e.01/g09/l9999.exe)
 1\1\GINC-B460\Force\UM062X\CC-pVDZ\C2H4O1(3)\KMOORE\16-Aug-2021\0\\#P 
 m062x/cc-pvdz # SCF=(xqc) # Force=() # int=ultrafine # fchk NoSym gues
 s=mix\\comment:\\0,3\O,1.1970098436,-0.2360203608,0.0357600023\C,0.080
 1024687,0.4359899857,-0.0728144885\C,-1.2269644638,-0.2296510961,-0.01
 94982074\H,0.0798242667,1.3246394315,-0.7491405995\H,-0.0885893819,0.9
 382926465,0.9590452116\H,-1.2875319808,-1.257692927,0.3431258547\H,-2.
 1386037525,0.3527833201,-0.1633917732\\Version=ES64L-G09RevE.01\HF=-15
 3.6139604\S2=2.011224\S2-1=0.\S2A=2.000066\RMSD=6.556e-09\RMSF=1.932e-
 02\Dipole=-0.6258427,0.397565,0.1267876\Quadrupole=-1.0697333,0.828852
 4,0.240881,0.0915614,-0.2522866,-0.0139313\PG=C01 [X(C2H4O1)]\\@


 JUST WHEN YOU THINK YOU'VE GOT THE WORLD ON A STRING,
 YOU FIND OUT IT'S YOUR LEASH.
 Job cpu time:       0 days  0 hours  1 minutes 10.7 seconds.
 File lengths (MBytes):  RWF=      5 Int=      0 D2E=      0 Chk=      1 Scr=      1
 Normal termination of Gaussian 09 at Mon Aug 16 22:45:26 2021.
