comment:                                                                
Force     UM062X                                                      CC-pVDZ             
Number of atoms                            I                7
Info1-9                                    I   N=           9
          20          19           0           0           0         100
           5          18        -502
Full Title                                 C   N=           1
comment:    
Route                                      C   N=           7
#P m062x/cc-pvdz # SCF=(xqc) # Force=() # int=ultrafine # fc
hk NoSym guess=mix      
Charge                                     I                0
Multiplicity                               I                3
Number of electrons                        I               24
Number of alpha electrons                  I               13
Number of beta electrons                   I               11
Number of basis functions                  I               62
Number of independent functions            I               62
Number of point charges in /Mol/           I                0
Number of translation vectors              I                0
Atomic numbers                             I   N=           7
           8           6           6           1           1           1
           1
Nuclear charges                            R   N=           7
  8.00000000E+00  6.00000000E+00  6.00000000E+00  1.00000000E+00  1.00000000E+00
  1.00000000E+00  1.00000000E+00
Current cartesian coordinates              R   N=          21
  2.26202078E+00 -4.46013844E-01  6.75766109E-02  1.51371728E-01  8.23901670E-01
 -1.37599442E-01 -2.31862681E+00 -4.33977678E-01 -3.68462721E-02  1.50846003E-01
  2.50320575E+00 -1.41567057E+00 -1.67409670E-01  1.77311613E+00  1.81233280E+00
 -2.43308283E+00 -2.37669519E+00  6.48413894E-01 -4.04137540E+00  6.66663859E-01
 -3.08765704E-01
Number of symbols in /Mol/                 I                0
Force Field                                I                0
Atom Types                                 C   N=           7
                                                            
                        
Int Atom Types                             I   N=           7
           0           0           0           0           0           0
           0
MM charges                                 R   N=           7
  0.00000000E+00  0.00000000E+00  0.00000000E+00  0.00000000E+00  0.00000000E+00
  0.00000000E+00  0.00000000E+00
Integer atomic weights                     I   N=           7
          16          12          12           1           1           1
           1
Real atomic weights                        R   N=           7
  1.59949146E+01  1.20000000E+01  1.20000000E+01  1.00782504E+00  1.00782504E+00
  1.00782504E+00  1.00782504E+00
Atom fragment info                         I   N=           7
           0           0           0           0           0           0
           0
Atom residue num                           I   N=           7
           0           0           0           0           0           0
           0
Nuclear spins                              I   N=           7
           0           0           0           1           1           1
           1
Nuclear ZEff                               R   N=           7
 -5.60000000E+00 -3.60000000E+00 -3.60000000E+00 -1.00000000E+00 -1.00000000E+00
 -1.00000000E+00 -1.00000000E+00
Nuclear ZNuc                               R   N=           7
  8.00000000E+00  6.00000000E+00  6.00000000E+00  1.00000000E+00  1.00000000E+00
  1.00000000E+00  1.00000000E+00
Nuclear QMom                               R   N=           7
  0.00000000E+00  0.00000000E+00  0.00000000E+00  0.00000000E+00  0.00000000E+00
  0.00000000E+00  0.00000000E+00
Nuclear GFac                               R   N=           7
  0.00000000E+00  0.00000000E+00  0.00000000E+00  2.79284600E+00  2.79284600E+00
  2.79284600E+00  2.79284600E+00
MicOpt                                     I   N=           7
          -1          -1          -1          -1          -1          -1
          -1
Number of residues                         I                0
Number of secondary structures             I                0
Number of contracted shells                I               30
Number of primitive shells                 I               80
Pure/Cartesian d shells                    I                0
Pure/Cartesian f shells                    I                0
Highest angular momentum                   I                2
Largest degree of contraction              I                7
Shell types                                I   N=          30
           0           0           0           1           1          -2
           0           0           0           1           1          -2
           0           0           0           1           1          -2
           0           0           1           0           0           1
           0           0           1           0           0           1
Number of primitives per shell             I   N=          30
           7           7           1           3           1           1
           7           7           1           3           1           1
           7           7           1           3           1           1
           3           1           1           3           1           1
           3           1           1           3           1           1
Shell to atom map                          I   N=          30
           1           1           1           1           1           1
           2           2           2           2           2           2
           3           3           3           3           3           3
           4           4           4           5           5           5
           6           6           6           7           7           7
Primitive exponents                        R   N=          80
  1.17200000E+04  1.75900000E+03  4.00800000E+02  1.13700000E+02  3.70300000E+01
  1.32700000E+01  5.02500000E+00  1.17200000E+04  4.00800000E+02  1.13700000E+02
  3.70300000E+01  1.32700000E+01  5.02500000E+00  1.01300000E+00  3.02300000E-01
  1.77000000E+01  3.85400000E+00  1.04600000E+00  2.75300000E-01  1.18500000E+00
  6.66500000E+03  1.00000000E+03  2.28000000E+02  6.47100000E+01  2.10600000E+01
  7.49500000E+00  2.79700000E+00  6.66500000E+03  2.28000000E+02  6.47100000E+01
  2.10600000E+01  7.49500000E+00  2.79700000E+00  5.21500000E-01  1.59600000E-01
  9.43900000E+00  2.00200000E+00  5.45600000E-01  1.51700000E-01  5.50000000E-01
  6.66500000E+03  1.00000000E+03  2.28000000E+02  6.47100000E+01  2.10600000E+01
  7.49500000E+00  2.79700000E+00  6.66500000E+03  2.28000000E+02  6.47100000E+01
  2.10600000E+01  7.49500000E+00  2.79700000E+00  5.21500000E-01  1.59600000E-01
  9.43900000E+00  2.00200000E+00  5.45600000E-01  1.51700000E-01  5.50000000E-01
  1.30100000E+01  1.96200000E+00  4.44600000E-01  1.22000000E-01  7.27000000E-01
  1.30100000E+01  1.96200000E+00  4.44600000E-01  1.22000000E-01  7.27000000E-01
  1.30100000E+01  1.96200000E+00  4.44600000E-01  1.22000000E-01  7.27000000E-01
  1.30100000E+01  1.96200000E+00  4.44600000E-01  1.22000000E-01  7.27000000E-01
Contraction coefficients                   R   N=          80
  7.11864434E-04  5.48520199E-03  2.79099296E-02  1.05133208E-01  2.84002490E-01
  4.51673946E-01  2.73208126E-01  7.69030046E-06  3.13484579E-04 -2.96614853E-03
 -1.08753543E-02 -1.20753817E-01 -1.06275264E-01  1.09597548E+00  1.00000000E+00
  6.26791663E-02  3.33536566E-01  7.41239642E-01  1.00000000E+00  1.00000000E+00
  6.93516317E-04  5.34150243E-03  2.71366714E-02  1.01992385E-01  2.75508636E-01
  4.51086433E-01  2.87565745E-01  7.73354740E-06  2.78072137E-04 -2.57875654E-03
 -8.95087684E-03 -1.06058855E-01 -1.31517686E-01  1.09948660E+00  1.00000000E+00
  5.69792516E-02  3.13207212E-01  7.60376742E-01  1.00000000E+00  1.00000000E+00
  6.93516317E-04  5.34150243E-03  2.71366714E-02  1.01992385E-01  2.75508636E-01
  4.51086433E-01  2.87565745E-01  7.73354740E-06  2.78072137E-04 -2.57875654E-03
 -8.95087684E-03 -1.06058855E-01 -1.31517686E-01  1.09948660E+00  1.00000000E+00
  5.69792516E-02  3.13207212E-01  7.60376742E-01  1.00000000E+00  1.00000000E+00
  3.34987264E-02  2.34800801E-01  8.13682958E-01  1.00000000E+00  1.00000000E+00
  3.34987264E-02  2.34800801E-01  8.13682958E-01  1.00000000E+00  1.00000000E+00
  3.34987264E-02  2.34800801E-01  8.13682958E-01  1.00000000E+00  1.00000000E+00
  3.34987264E-02  2.34800801E-01  8.13682958E-01  1.00000000E+00  1.00000000E+00
Coordinates of each shell                  R   N=          90
  2.26202078E+00 -4.46013844E-01  6.75766109E-02  2.26202078E+00 -4.46013844E-01
  6.75766109E-02  2.26202078E+00 -4.46013844E-01  6.75766109E-02  2.26202078E+00
 -4.46013844E-01  6.75766109E-02  2.26202078E+00 -4.46013844E-01  6.75766109E-02
  2.26202078E+00 -4.46013844E-01  6.75766109E-02  1.51371728E-01  8.23901670E-01
 -1.37599442E-01  1.51371728E-01  8.23901670E-01 -1.37599442E-01  1.51371728E-01
  8.23901670E-01 -1.37599442E-01  1.51371728E-01  8.23901670E-01 -1.37599442E-01
  1.51371728E-01  8.23901670E-01 -1.37599442E-01  1.51371728E-01  8.23901670E-01
 -1.37599442E-01 -2.31862681E+00 -4.33977678E-01 -3.68462721E-02 -2.31862681E+00
 -4.33977678E-01 -3.68462721E-02 -2.31862681E+00 -4.33977678E-01 -3.68462721E-02
 -2.31862681E+00 -4.33977678E-01 -3.68462721E-02 -2.31862681E+00 -4.33977678E-01
 -3.68462721E-02 -2.31862681E+00 -4.33977678E-01 -3.68462721E-02  1.50846003E-01
  2.50320575E+00 -1.41567057E+00  1.50846003E-01  2.50320575E+00 -1.41567057E+00
  1.50846003E-01  2.50320575E+00 -1.41567057E+00 -1.67409670E-01  1.77311613E+00
  1.81233280E+00 -1.67409670E-01  1.77311613E+00  1.81233280E+00 -1.67409670E-01
  1.77311613E+00  1.81233280E+00 -2.43308283E+00 -2.37669519E+00  6.48413894E-01
 -2.43308283E+00 -2.37669519E+00  6.48413894E-01 -2.43308283E+00 -2.37669519E+00
  6.48413894E-01 -4.04137540E+00  6.66663859E-01 -3.08765704E-01 -4.04137540E+00
  6.66663859E-01 -3.08765704E-01 -4.04137540E+00  6.66663859E-01 -3.08765704E-01
Constraint Structure                       R   N=          21
  2.26202078E+00 -4.46013844E-01  6.75766109E-02  1.51371728E-01  8.23901670E-01
 -1.37599442E-01 -2.31862681E+00 -4.33977678E-01 -3.68462721E-02  1.50846003E-01
  2.50320575E+00 -1.41567057E+00 -1.67409670E-01  1.77311613E+00  1.81233280E+00
 -2.43308283E+00 -2.37669519E+00  6.48413894E-01 -4.04137540E+00  6.66663859E-01
 -3.08765704E-01
Num ILSW                                   I              100
ILSW                                       I   N=         100
           1           0           0           0           2           0
           0           0           3           0        4336          -1
           5           0           0           0           2           0
           0           0           0           0           1           0
           1           1           0           0           0           0
           0           0      100000           0          -1           0
           0           0           0           0           0           0
           0           0           0           1           0           0
           0           0           1           0           0           0
           0           0           4          41           0           0
           0           0          55           0           0           0
           0           0           0           7           0           0
           0           0           0           0           0           0
           0           0           0           0           0           0
           0           0           0           0           0           0
           0           0           0           0           0           0
           0           0           0           0
Num RLSW                                   I               41
RLSW                                       R   N=          41
  1.00000000E+00  1.00000000E+00  1.00000000E+00  1.00000000E+00  5.40000000E-01
  0.00000000E+00  0.00000000E+00  1.00000000E+00  0.00000000E+00  0.00000000E+00
  0.00000000E+00  0.00000000E+00  1.00000000E+00  0.00000000E+00  0.00000000E+00
  0.00000000E+00  0.00000000E+00  1.00000000E+00  0.00000000E+00  0.00000000E+00
  0.00000000E+00  0.00000000E+00  1.00000000E+00  0.00000000E+00  0.00000000E+00
  0.00000000E+00  0.00000000E+00  1.00000000E+00  0.00000000E+00  0.00000000E+00
  0.00000000E+00  0.00000000E+00  1.00000000E+00  0.00000000E+00  0.00000000E+00
  0.00000000E+00  0.00000000E+00  0.00000000E+00  1.00000000E+00  1.00000000E+00
  0.00000000E+00
MxBond                                     I                4
NBond                                      I   N=           7
           1           4           3           1           1           1
           1
IBond                                      I   N=          28
           2           0           0           0           1           3
           4           5           2           6           7           0
           2           0           0           0           2           0
           0           0           3           0           0           0
           3           0           0           0
RBond                                      R   N=          28
  1.00000000E+00  0.00000000E+00  0.00000000E+00  0.00000000E+00  1.00000000E+00
  1.00000000E+00  1.00000000E+00  1.00000000E+00  1.00000000E+00  1.00000000E+00
  1.00000000E+00  0.00000000E+00  1.00000000E+00  0.00000000E+00  0.00000000E+00
  0.00000000E+00  1.00000000E+00  0.00000000E+00  0.00000000E+00  0.00000000E+00
  1.00000000E+00  0.00000000E+00  0.00000000E+00  0.00000000E+00  1.00000000E+00
  0.00000000E+00  0.00000000E+00  0.00000000E+00
Virial Ratio                               R      2.005084725280596E+00
SCF Energy                                 R     -1.536139604263075E+02
Total Energy                               R     -1.536139604263075E+02
S**2                                       R      2.011224218064839E+00
S**2 after annihilation                    R      2.000065873037955E+00
RMS Force                                  R      1.931657684407494E-02
RMS Density                                R      6.556184428543274E-09
Job Status                                 I                1
Nuclear derivative order                   I                1
External E-field                           R   N=          35
  0.00000000E+00  0.00000000E+00  0.00000000E+00  0.00000000E+00  0.00000000E+00
  0.00000000E+00  0.00000000E+00  0.00000000E+00  0.00000000E+00  0.00000000E+00
  0.00000000E+00  0.00000000E+00  0.00000000E+00  0.00000000E+00  0.00000000E+00
  0.00000000E+00  0.00000000E+00  0.00000000E+00  0.00000000E+00  0.00000000E+00
  0.00000000E+00  0.00000000E+00  0.00000000E+00  0.00000000E+00  0.00000000E+00
  0.00000000E+00  0.00000000E+00  0.00000000E+00  0.00000000E+00  0.00000000E+00
  0.00000000E+00  0.00000000E+00  0.00000000E+00  0.00000000E+00  0.00000000E+00
IOpCl                                      I                1
IROHF                                      I                0
Alpha Orbital Energies                     R   N=          62
 -1.96778489E+01 -1.06139013E+01 -1.05636938E+01 -1.17871286E+00 -8.56206630E-01
 -6.86151518E-01 -5.71977164E-01 -5.61054367E-01 -5.25742280E-01 -4.70640225E-01
 -4.01998420E-01 -3.67494634E-01 -2.54009295E-01  1.08062533E-01  1.42205693E-01
  1.51308861E-01  1.80429190E-01  2.50818577E-01  2.92914763E-01  4.65758684E-01
  5.10658604E-01  5.24577909E-01  5.49223959E-01  5.95679562E-01  6.54073171E-01
  6.75547950E-01  6.83659207E-01  7.02560393E-01  7.28512986E-01  8.84372231E-01
  9.12015290E-01  9.19452761E-01  1.01653523E+00  1.08538335E+00  1.11876569E+00
  1.16779672E+00  1.24116674E+00  1.43497103E+00  1.48284609E+00  1.51030118E+00
  1.57678080E+00  1.58542099E+00  1.64269291E+00  1.67740815E+00  1.73174718E+00
  1.79088105E+00  1.82767887E+00  1.85282953E+00  1.90849368E+00  1.98837606E+00
  2.08651240E+00  2.18385907E+00  2.19661842E+00  2.31897144E+00  2.38991180E+00
  2.53514794E+00  2.64281983E+00  2.70871656E+00  2.77566585E+00  3.09388900E+00
  3.24768050E+00  3.35221525E+00
Beta Orbital Energies                      R   N=          62
 -1.96633244E+01 -1.06151628E+01 -1.05560051E+01 -1.12312780E+00 -8.16003700E-01
 -6.52890987E-01 -5.44918401E-01 -5.09028993E-01 -4.80954369E-01 -4.55444712E-01
 -3.39237461E-01 -8.05482557E-02  6.02172646E-03  1.01684394E-01  1.45956505E-01
  1.51696636E-01  1.86877254E-01  2.53116570E-01  3.02999248E-01  4.68991979E-01
  5.28373450E-01  5.40108383E-01  5.81009372E-01  6.02955652E-01  6.46184989E-01
  6.87218560E-01  7.05332936E-01  7.26753197E-01  7.38184221E-01  9.10599060E-01
  9.23082961E-01  9.48875451E-01  1.06318143E+00  1.11359445E+00  1.14438882E+00
  1.18063116E+00  1.24610441E+00  1.44940405E+00  1.49875093E+00  1.53187197E+00
  1.59189950E+00  1.60803297E+00  1.65153716E+00  1.68397055E+00  1.74767114E+00
  1.80786909E+00  1.84824180E+00  1.87490349E+00  1.92825741E+00  2.00500619E+00
  2.10080092E+00  2.20441100E+00  2.21206624E+00  2.33485816E+00  2.40378253E+00
  2.56964574E+00  2.67545618E+00  2.75693964E+00  2.82692940E+00  3.13018264E+00
  3.26417987E+00  3.37764923E+00
Alpha MO coefficients                      R   N=        3844
  9.96991133E-01  1.93626358E-02 -1.07691519E-02 -1.40893760E-03  8.38938574E-04
 -1.12131715E-04  2.70560569E-03 -1.52735113E-03  1.48521572E-05  1.37493766E-04
  5.23866797E-05  1.18869564E-04 -7.81890972E-05  7.95486920E-05  1.44360473E-05
 -9.29560600E-05  6.01096247E-03  3.39045313E-04 -5.59962167E-05 -2.75886017E-05
  2.66849329E-03 -2.72016118E-03  1.48117557E-03  1.73099276E-04 -1.94836737E-04
 -6.06659389E-05 -2.58977012E-04  4.14443492E-04  1.55929347E-05 -6.53428134E-05
 -1.05813703E-03 -2.05364468E-04 -2.06949299E-04 -4.87905155E-06 -1.21869153E-03
  1.41037647E-03 -4.93009587E-04 -3.35071397E-05 -1.41316665E-04 -6.10964268E-05
 -4.07537996E-04  7.09253495E-05 -2.85064955E-04  5.38629700E-04 -4.11318370E-04
  2.29357803E-04 -7.46117130E-05 -7.17396303E-04 -6.68844889E-04 -1.92113729E-04
  2.81301417E-04  4.68037522E-05  1.29933557E-04  6.74548324E-04  5.31689823E-06
 -1.01537172E-04  4.02591859E-05 -1.61137211E-04 -4.31792217E-04  5.81771978E-05
 -1.13039632E-04  1.30788111E-05 -3.96034034E-05  4.63846990E-04 -1.60636813E-03
  2.33666765E-04 -4.75009068E-05 -2.61955916E-05  1.05802166E-03 -1.19015217E-03
  3.43056913E-04  3.98542434E-04 -9.64118733E-05  8.31542362E-05 -3.07334515E-04
  6.06587986E-04  9.96920369E-01  2.51397952E-02 -1.43514064E-02  3.90995928E-04
  9.64331574E-05  5.43055628E-04  4.17249763E-03  2.69413905E-04 -8.47630219E-04
 -3.32596132E-05 -9.07522230E-05 -2.42574628E-04  4.73363648E-06 -5.97507708E-04
  4.19665387E-03 -3.69436654E-04  5.35898325E-03 -3.43837018E-04 -1.85619545E-04
  7.34523050E-05  2.41413507E-03  1.68749678E-03 -2.97103901E-04  2.83445412E-04
  7.86089509E-05 -7.52801480E-05 -5.17631656E-04 -7.41834067E-04 -6.64681872E-04
  1.63868153E-03 -2.39561136E-04  1.08753371E-03 -7.84199893E-04 -1.21265993E-04
  2.00622444E-03 -2.32446724E-04  5.57332222E-04  1.11029574E-03 -3.38609940E-04
  7.12655208E-04 -2.19544623E-04 -9.18899971E-06  1.65596019E-06 -4.29217177E-04
  2.85579901E-04 -1.48399575E-04 -1.62847332E-04  4.35312955E-05 -9.91227841E-06
 -1.97904024E-04  3.29298507E-04  9.46249915E-05  3.13319404E-05 -1.87312719E-05
 -2.12844236E-04  2.00253676E-04  7.01196727E-05 -8.02309883E-05  1.05001242E-06
 -3.24376504E-05 -8.55024838E-05 -3.77028529E-05 -4.19111213E-03 -2.21497698E-04
  1.07616481E-03  4.85673198E-04  3.79423194E-04  3.57692185E-05 -7.08853117E-04
 -7.33825952E-04 -6.14077409E-04  6.22302179E-04  1.38691350E-04  5.34761500E-05
 -6.50866391E-04 -6.73919553E-04  9.96845167E-01  2.45606033E-02 -1.10376117E-02
 -3.71283218E-04  1.31937530E-05  3.03783394E-04 -1.02733427E-03 -6.24849844E-04
 -2.04374042E-04 -9.36197383E-04  1.90386754E-04 -6.39073507E-04 -2.69276318E-04
 -4.11498425E-04 -1.60658788E-04  2.79847927E-04 -2.46071195E-05  6.88941943E-06
  6.60442440E-05  1.00582788E-05  1.27929013E-03 -3.78178375E-04 -2.00474615E-04
 -1.26944191E-05 -1.62990530E-03  1.86104406E-03 -6.76263606E-05 -1.56844520E-03
  6.40879502E-04 -1.62638480E-03  1.79227417E-03 -1.43798938E-03  9.56484856E-04
 -1.53157097E-04 -1.98980658E-01  4.31195357E-01  4.18694956E-01 -1.08123057E-01
  6.45665426E-02 -8.37981532E-03 -3.41101516E-02  2.07045101E-02 -1.37093558E-03
 -9.02475167E-04  4.10757021E-03  5.73332965E-03  4.31479571E-03 -9.24636323E-03
 -9.42033160E-02  1.85624765E-01  5.81679467E-02  1.19398925E-01 -7.96745315E-02
  1.64677010E-02  1.65683454E-02 -1.06560910E-02 -3.01217070E-03 -1.54331676E-02
  6.14400983E-03 -6.24087808E-04  1.41674528E-02 -2.36726501E-02 -1.65930949E-02
  3.38177262E-02  2.39493777E-02  2.80942614E-02  7.14754493E-03  1.04460313E-03
  1.02860191E-02  3.32133002E-03  1.04992073E-04 -2.03712666E-03  9.04484722E-04
  1.10160400E-03  7.32123320E-03  2.53087684E-03  3.71455175E-02  3.44886586E-05
  2.53527236E-03 -6.85873755E-03  5.44013366E-03  4.55861427E-02  4.44133809E-03
  1.93241475E-03 -4.16601946E-03 -7.62970297E-03  9.60401696E-03  2.95841000E-04
  3.63669813E-04  2.23281488E-03 -9.38688068E-04  4.26085441E-03  1.20245685E-03
  1.30144397E-03  7.47527828E-04  1.71299230E-04  6.85870727E-02 -1.55724720E-01
 -1.78323343E-01 -5.30292521E-02  9.84144950E-03  4.23631886E-03 -3.13648923E-02
  1.35331827E-02  1.44378301E-03 -3.77463750E-03 -1.41006377E-03 -2.07298665E-03
  3.52333359E-03 -1.93451223E-03 -1.11996797E-01  2.36621517E-01  1.39118368E-01
 -1.63843771E-01  2.06819313E-04  1.80153725E-02 -5.25614734E-02  1.76176676E-03
  8.73757966E-04 -3.82193148E-03 -2.99815884E-03 -2.73277733E-04  3.34175651E-03
  1.37252378E-02 -1.52763110E-01  3.11834095E-01  2.28686449E-01  7.29923115E-02
  5.62127379E-02  7.19521587E-03  1.66417993E-02  1.61684044E-02  3.31835647E-03
 -2.69448632E-03  2.60552562E-05  1.95857924E-03  2.11567771E-03  1.04715003E-02
  9.52323804E-02  5.80392194E-03 -1.93285110E-03 -8.70671867E-03  7.81358814E-03
  1.26746071E-01  9.68089967E-03 -1.47448674E-03 -6.62621033E-03 -1.36554887E-02
  1.08738933E-01  4.87620199E-03  1.56562569E-03  1.41180547E-02 -4.26067461E-03
  1.21729374E-01  6.28066904E-03  1.45041442E-02 -8.32283412E-03  2.66262628E-03
  5.77656792E-02 -1.33769136E-01 -1.71878896E-01 -9.83307558E-02  1.52002719E-01
  1.41637179E-02 -6.47280054E-02  8.60403575E-02  8.91817481E-03 -6.40316107E-03
 -1.46233537E-03 -2.51936769E-03 -6.50706312E-04 -1.01370167E-02 -1.05515210E-01
  2.45527240E-01  1.32263153E-01  5.61506121E-02  1.45427932E-01  2.50330499E-02
  3.97255964E-03  7.46010982E-02 -2.01856527E-03  8.75467093E-03  2.17505695E-03
  2.79629942E-03  2.99894895E-04 -4.45964523E-03  1.12922550E-01 -2.38387331E-01
 -1.90624657E-01  1.09194112E-01  9.22691609E-02 -6.65694879E-03  4.10073281E-02
  2.35530395E-02  2.39400632E-03 -5.45541804E-03  1.55373431E-03 -2.01629934E-04
  1.97324836E-03  8.22734527E-03  1.82722315E-01  2.28314419E-02  1.34366751E-04
 -1.19237299E-02  1.33732013E-02  1.79955714E-01  3.22277136E-02  3.45674893E-03
 -2.92154995E-03 -1.44238624E-02 -1.82998050E-01 -3.84594255E-02  7.41803849E-04
 -1.78484294E-02  6.45602652E-03 -1.53681295E-01 -2.66401346E-02 -1.26450673E-02
  1.10135405E-02 -2.60994901E-03 -1.24787466E-03  4.59224471E-03 -7.63441706E-04
  1.47496607E-03  4.89649983E-02  3.87752464E-01  2.07381604E-03  2.88394303E-02
  2.30550551E-01 -2.12051161E-03 -1.60706814E-02  9.86398986E-03 -9.33082285E-05
 -1.31560491E-03  1.99121708E-02 -4.41840827E-02 -4.23503206E-02 -9.79307963E-03
 -2.64100439E-02  3.48576064E-01  4.66101033E-03 -8.29724638E-03  1.38956060E-01
  1.18598839E-02  1.64334270E-02 -8.76662919E-03  2.55934801E-04  2.88300991E-03
  3.34868604E-03 -6.26285828E-03 -9.35216114E-03  1.89628099E-02 -3.53626674E-02
  1.30757872E-01  4.05251697E-03 -9.84970076E-03  6.03668924E-02  1.22134575E-03
  1.26366325E-02  8.41300523E-03 -1.80286124E-04 -6.42157437E-05 -1.92881166E-01
 -5.21527776E-02  1.79575134E-03  1.43911686E-02 -2.84197891E-03  2.13931505E-01
  6.32742344E-02 -6.37713625E-04 -8.45952747E-03 -7.52468344E-03  4.81989366E-02
  1.05295441E-02  4.31853984E-04  4.40425907E-03  1.90391570E-03 -4.11580402E-02
 -1.17224194E-02 -2.66562054E-03  1.10333008E-03  2.43529523E-03 -4.79406591E-02
  1.02275345E-01  1.87036806E-01  3.79741374E-01  4.15471859E-02  9.46251459E-02
  2.19856679E-01  2.50484022E-02  5.71177807E-02  8.69299442E-03 -3.66561808E-03
  3.79807491E-03 -1.58694038E-02  5.42108528E-03  2.57093665E-02 -7.32960493E-02
 -4.42577411E-02 -6.90189932E-02  2.99763820E-01 -1.37181313E-03  3.23437316E-02
  9.61131707E-02  4.89698506E-03  7.76457649E-03  2.21540088E-03  1.84513521E-03
  1.55922791E-02  8.74290387E-03 -9.74679221E-03  1.19692344E-02  4.55665630E-02
 -2.04569969E-01  1.52593823E-01 -2.21222111E-02 -6.12429556E-02  8.15819194E-02
 -1.15667706E-02 -9.32990534E-06  1.12427318E-03  7.29309857E-04 -8.71342718E-03
 -2.09608731E-03  1.30828050E-01  4.33239435E-02 -4.04171102E-03 -4.02859842E-03
  9.35042349E-03  8.41951078E-02  4.08897084E-02 -1.25129242E-03  4.54384798E-03
 -7.44976340E-03 -8.46302565E-02 -6.09562707E-03 -6.53036808E-03 -3.54461818E-03
  2.03494784E-03  1.90122679E-01  5.07569798E-02  9.62428523E-03 -5.50102457E-03
  2.17787074E-03  3.74626347E-02 -7.88445188E-02 -1.52944012E-01 -1.55257478E-01
  3.93614243E-01  1.40626808E-02 -8.92542249E-02  2.36924589E-01  1.10602808E-02
 -8.48481197E-03  4.23331880E-04 -3.74008504E-03 -4.11542454E-03 -1.62314994E-02
  4.51565006E-03 -4.34910883E-03 -1.72110315E-02  3.43383897E-01  4.90499609E-02
 -1.48556154E-02  7.06498975E-02  5.32212599E-02 -9.25673870E-03 -5.23115981E-03
  7.36024240E-03 -7.09193053E-04  1.95412200E-02 -4.32173141E-03 -1.83391839E-02
  3.38672518E-02  4.15682496E-02 -2.60120233E-01 -1.59149031E-01  1.55470446E-02
 -1.05379598E-01 -8.25220768E-02  6.97817778E-03  5.09079403E-03  4.74828474E-04
 -1.89264434E-03 -1.17760433E-04 -1.42931208E-02  3.10760639E-02  9.03130751E-04
  6.89097017E-03 -1.57745985E-03  1.83440380E-03 -4.51962851E-02 -1.36120849E-02
  7.90561325E-03  3.70086715E-03  3.19632700E-03  1.51159031E-01  2.46714456E-02
 -6.15976593E-03  1.00918514E-02 -4.29266581E-03  1.26405158E-01  4.33829700E-02
  3.38649801E-03 -7.07688353E-03  1.61551561E-03  9.90062188E-03 -2.33222033E-02
 -2.74003443E-02 -2.65342691E-01 -1.25186984E-02  3.69993170E-02 -1.67749076E-01
 -8.58144280E-03  2.64061672E-02 -4.73600100E-03 -8.68583506E-04  6.75124121E-04
  1.02745386E-02 -3.58466238E-03  2.58267295E-03  2.00851422E-03 -2.21062572E-02
  4.89154039E-02 -1.78559844E-01  5.48774082E-02 -4.32632268E-02 -2.93707709E-02
  5.72584174E-03 -5.96464348E-03  9.24123747E-03  9.57341400E-04  1.10652626E-02
 -2.21745450E-02  1.44997942E-03  3.80687366E-04 -2.09067662E-02 -1.41938193E-01
  3.45543818E-01 -1.08473689E-01 -4.26588693E-02  1.06007302E-01 -3.28481174E-02
 -2.58632423E-03  2.97851516E-03  5.49275275E-03  1.26945139E-02 -8.18218488E-03
 -1.53189673E-01 -7.90326909E-02  4.20350119E-03  4.48841968E-03 -6.78460888E-03
 -4.31328244E-02 -2.26334195E-02 -1.21738057E-04 -5.13290655E-03  5.09532107E-03
 -2.96000408E-01 -1.22657040E-01 -5.05285921E-03 -1.26745192E-02  4.45904813E-03
  2.72962327E-01  1.20408905E-01  1.45925856E-02 -4.34666084E-04 -1.08129122E-04
 -1.11954650E-03  5.22328258E-03 -5.79796593E-03  5.61552260E-02  1.63255754E-01
  4.75994616E-01  4.56976615E-02  1.16467089E-01  3.35588082E-01 -1.67848742E-03
 -6.56934291E-03  3.16859041E-03 -1.75056977E-03 -7.99016532E-04 -1.08433035E-02
  2.69593198E-02  4.25062963E-02 -7.04866139E-02 -8.01948489E-02 -1.93835103E-01
 -1.92994458E-02 -4.91715206E-02 -4.50261730E-02 -6.76985082E-03  3.43959165E-02
 -1.85307448E-02  7.16805777E-03  1.18948948E-02 -1.89066430E-02  4.96820455E-02
  5.72405847E-02  1.43283967E-01 -9.26924840E-03 -2.30473770E-01  5.57299268E-02
 -2.56477973E-04 -1.64010624E-01 -1.14208475E-03 -9.73763807E-03 -9.09007551E-03
  4.92025474E-03  2.24597840E-03  9.21264471E-02  6.22482160E-02 -1.94667240E-03
 -7.75104158E-03 -3.99590378E-03 -2.73067303E-01 -1.54885145E-01 -4.74982380E-04
  5.69121144E-03  9.22123467E-03 -3.32467887E-02 -6.92441254E-03  3.92923903E-03
 -3.06973017E-03 -4.80990020E-03 -5.60445063E-02 -3.64067469E-02 -1.77829347E-04
  2.02924241E-03 -7.09633318E-03 -9.68046222E-04  6.17796621E-03 -9.37078938E-03
  2.61344867E-01  4.35288537E-01 -2.17487515E-01  1.92681912E-01  3.10849408E-01
 -1.53976353E-01  4.46715560E-04  3.76392281E-03 -2.65597810E-03 -8.12237177E-03
 -4.26165509E-03  2.62834019E-03  7.33386449E-03 -3.78603634E-02 -1.03658610E-01
 -1.76354062E-01  6.05976585E-02  2.01400714E-02 -3.24805073E-02 -8.14024704E-03
 -8.63285953E-03 -1.28615949E-02  1.51941604E-02  4.23141873E-02  1.86411372E-02
 -3.19334889E-02  7.26408209E-02  1.90808983E-01  2.10368137E-01  1.21707548E-01
  2.04283840E-02  1.01316565E-01  7.72233681E-02  2.84708638E-02 -3.01071213E-05
  3.62897145E-03  5.82250853E-03  9.47843685E-03  4.12049476E-04 -2.36926528E-01
 -1.58936419E-01 -3.75498294E-03  4.76815215E-03 -5.97967009E-03 -1.67654738E-02
 -1.96690073E-02 -6.88628726E-03 -8.61411057E-03  3.57656364E-03 -7.21570567E-02
 -7.77000090E-02  9.33815160E-04 -1.76140445E-03  1.48004570E-03 -6.44100764E-02
 -4.93148846E-02  1.59958170E-04  7.18676226E-03 -6.98518308E-04 -5.06627677E-03
  1.22214558E-02  2.68430138E-02 -3.76102838E-02  3.92656463E-02  1.16651735E-01
 -2.70855726E-02  3.41522011E-02  1.00903732E-01 -9.17551378E-04  4.61936740E-04
 -2.62037439E-03  1.40401002E-03 -3.21858126E-04 -3.27918882E-03  1.35876077E-02
 -1.48436563E-02 -2.22660314E-02 -3.88507417E-02 -1.57390130E-01 -1.88730678E-02
 -2.65659276E-02 -9.16946188E-02 -1.22116092E-02 -1.55909521E-02 -3.23722388E-02
  6.73861896E-03 -4.15700786E-03 -8.30243307E-04 -7.45622789E-04  2.57105507E-03