 Entering Gaussian System, Link 0=g09
 Initial command:
 /soft/gaussian/09-e.01/g09/l1.exe "/scratch/kmoore/Gau-10392.inp" -scrdir="/scratch/kmoore"
 Entering Link 1 = /soft/gaussian/09-e.01/g09/l1.exe PID=     10393.
  
 Copyright (c) 1988,1990,1992,1993,1995,1998,2003,2009,2015,
            Gaussian, Inc.  All Rights Reserved.
  
 This is part of the Gaussian(R) 09 program.  It is based on
 the Gaussian(R) 03 system (copyright 2003, Gaussian, Inc.),
 the Gaussian(R) 98 system (copyright 1998, Gaussian, Inc.),
 the Gaussian(R) 94 system (copyright 1995, Gaussian, Inc.),
 the Gaussian 92(TM) system (copyright 1992, Gaussian, Inc.),
 the Gaussian 90(TM) system (copyright 1990, Gaussian, Inc.),
 the Gaussian 88(TM) system (copyright 1988, Gaussian, Inc.),
 the Gaussian 86(TM) system (copyright 1986, Carnegie Mellon
 University), and the Gaussian 82(TM) system (copyright 1983,
 Carnegie Mellon University). Gaussian is a federally registered
 trademark of Gaussian, Inc.
  
 This software contains proprietary and confidential information,
 including trade secrets, belonging to Gaussian, Inc.
  
 This software is provided under written license and may be
 used, copied, transmitted, or stored only in accord with that
 written license.
  
 The following legend is applicable only to US Government
 contracts under FAR:
  
                    RESTRICTED RIGHTS LEGEND
  
 Use, reproduction and disclosure by the US Government is
 subject to restrictions as set forth in subparagraphs (a)
 and (c) of the Commercial Computer Software - Restricted
 Rights clause in FAR 52.227-19.
  
 Gaussian, Inc.
 340 Quinnipiac St., Bldg. 40, Wallingford CT 06492
  
  
 ---------------------------------------------------------------
 Warning -- This program may not be used in any manner that
 competes with the business of Gaussian, Inc. or will provide
 assistance to any competitor of Gaussian, Inc.  The licensee
 of this program is prohibited from giving any competitor of
 Gaussian, Inc. access to this program.  By using this program,
 the user acknowledges that Gaussian, Inc. is engaged in the
 business of creating and licensing software in the field of
 computational chemistry and represents and warrants to the
 licensee that it is not a competitor of Gaussian, Inc. and that
 it will not use this program in any manner prohibited above.
 ---------------------------------------------------------------
  

 Cite this work as:
 Gaussian 09, Revision E.01,
 M. J. Frisch, G. W. Trucks, H. B. Schlegel, G. E. Scuseria, 
 M. A. Robb, J. R. Cheeseman, G. Scalmani, V. Barone, B. Mennucci, 
 G. A. Petersson, H. Nakatsuji, M. Caricato, X. Li, H. P. Hratchian, 
 A. F. Izmaylov, J. Bloino, G. Zheng, J. L. Sonnenberg, M. Hada, 
 M. Ehara, K. Toyota, R. Fukuda, J. Hasegawa, M. Ishida, T. Nakajima, 
 Y. Honda, O. Kitao, H. Nakai, T. Vreven, J. A. Montgomery, Jr., 
 J. E. Peralta, F. Ogliaro, M. Bearpark, J. J. Heyd, E. Brothers, 
 K. N. Kudin, V. N. Staroverov, T. Keith, R. Kobayashi, J. Normand, 
 K. Raghavachari, A. Rendell, J. C. Burant, S. S. Iyengar, J. Tomasi, 
 M. Cossi, N. Rega, J. M. Millam, M. Klene, J. E. Knox, J. B. Cross, 
 V. Bakken, C. Adamo, J. Jaramillo, R. Gomperts, R. E. Stratmann, 
 O. Yazyev, A. J. Austin, R. Cammi, C. Pomelli, J. W. Ochterski, 
 R. L. Martin, K. Morokuma, V. G. Zakrzewski, G. A. Voth, 
 P. Salvador, J. J. Dannenberg, S. Dapprich, A. D. Daniels, 
 O. Farkas, J. B. Foresman, J. V. Ortiz, J. Cioslowski, 
 and D. J. Fox, Gaussian, Inc., Wallingford CT, 2013.
 
 ******************************************
 Gaussian 09:  ES64L-G09RevE.01 30-Nov-2015
                 5-Aug-2021 
 ******************************************
 %mem=20GB
 %NProcShared=10
 Will use up to   10 processors via shared memory.
 -------------------------------------------------------------
 #P wb97xd/6-31g* # SCF=(xqc) # POpt=() # int=ultrafine # Freq
 -------------------------------------------------------------
 1/10=7,14=-1,26=4,38=1/1,3;
 2/12=2,17=6,18=5,29=3,40=1/2;
 3/5=1,6=6,7=1,11=2,16=1,25=1,30=1,71=1,74=-58,75=-5/1,2,3;
 4//1;
 5/5=2,8=3,13=1,38=5/2,8;
 6/7=2,8=2,9=2,10=2,28=1/1;
 7/29=1/1,2,3,16;
 1/10=7,14=-1,26=4/3(2);
 2/29=3/2;
 99//99;
 2/29=3/2;
 3/5=1,6=6,7=1,11=2,16=1,25=1,30=1,71=1,74=-58,75=-5/1,2,3;
 4/5=5,16=3,69=1/1;
 5/5=2,8=3,13=1,38=5/2,8;
 7//1,2,3,16;
 1/14=-1,26=4/3(-5);
 2/29=3/2;
 6/7=2,8=2,9=2,10=2,19=2,28=1/1;
 99/9=1/99;
 Leave Link    1 at Thu Aug  5 16:40:42 2021, MaxMem=  2684354560 cpu:         0.4
 (Enter /soft/gaussian/09-e.01/g09/l101.exe)
 --------
 comment:
 --------
 Symbolic Z-matrix:
 Charge =  0 Multiplicity = 1
 C
 C                    1    R1
 H                    1    R2       2    A2
 H                    1    R3       2    A3       3    D3       0
 H                    1    R4       2    A4       3    D4       0
 O                    2    R5       1    A5       3    D5       0
 H                    2    R6       1    A6       6    D6       0
 H                    2    R7       1    A7       6    D7       0
 H                    6    R8       2    A8       1    D8       0
       Variables:
  R1                    1.5146                   
  R2                    1.09497                  
  R3                    1.09356                  
  R4                    1.09495                  
  R5                    1.42018                  
  R6                    1.09421                  
  R7                    1.09387                  
  R8                    0.97242                  
  A2                  110.70064                  
  A3                  110.88818                  
  A4                  110.60102                  
  A5                  109.9792                   
  A6                  111.02297                  
  A7                  110.4858                   
  A8                  107.5453                   
  D3                  120.81883                  
  D4                  241.7012                   
  D5                   60.11803                  
  D6                  239.62769                  
  D7                  119.34346                  
  D8                  300.14383                  
 
 NAtoms=      9 NQM=        9 NQMF=       0 NMMI=      0 NMMIF=      0
                NMic=       0 NMicF=      0.
                    Isotopes and Nuclear Properties:
 (Nuclear quadrupole moments (NQMom) in fm**2, nuclear magnetic moments (NMagM)
  in nuclear magnetons)

  Atom         1           2           3           4           5           6           7           8           9
 IAtWgt=          12          12           1           1           1          16           1           1           1
 AtmWgt=  12.0000000  12.0000000   1.0078250   1.0078250   1.0078250  15.9949146   1.0078250   1.0078250   1.0078250
 NucSpn=           0           0           1           1           1           0           1           1           1
 AtZEff=   0.0000000   0.0000000   0.0000000   0.0000000   0.0000000   0.0000000   0.0000000   0.0000000   0.0000000
 NQMom=    0.0000000   0.0000000   0.0000000   0.0000000   0.0000000   0.0000000   0.0000000   0.0000000   0.0000000
 NMagM=    0.0000000   0.0000000   2.7928460   2.7928460   2.7928460   0.0000000   2.7928460   2.7928460   2.7928460
 AtZNuc=   6.0000000   6.0000000   1.0000000   1.0000000   1.0000000   8.0000000   1.0000000   1.0000000   1.0000000
 Leave Link  101 at Thu Aug  5 16:40:42 2021, MaxMem=  2684354560 cpu:         0.8
 (Enter /soft/gaussian/09-e.01/g09/l103.exe)

 GradGradGradGradGradGradGradGradGradGradGradGradGradGradGradGradGradGrad
 Berny optimization.
 Initialization pass.
                       ----------------------------
                       !    Initial Parameters    !
                       ! (Angstroms and Degrees)  !
 ----------------------                            ----------------------
 !      Name          Value   Derivative information (Atomic Units)     !
 ------------------------------------------------------------------------
 !       R1          1.5146   estimate D2E/DX2                          !
 !       R2          1.095    estimate D2E/DX2                          !
 !       R3          1.0936   estimate D2E/DX2                          !
 !       R4          1.0949   estimate D2E/DX2                          !
 !       R5          1.4202   estimate D2E/DX2                          !
 !       R6          1.0942   estimate D2E/DX2                          !
 !       R7          1.0939   estimate D2E/DX2                          !
 !       R8          0.9724   estimate D2E/DX2                          !
 !       A2        110.7006   estimate D2E/DX2                          !
 !       A3        110.8882   estimate D2E/DX2                          !
 !       A4        110.601    estimate D2E/DX2                          !
 !       A5        109.9792   estimate D2E/DX2                          !
 !       A6        111.023    estimate D2E/DX2                          !
 !       A7        110.4858   estimate D2E/DX2                          !
 !       A8        107.5453   estimate D2E/DX2                          !
 !       D3        120.8188   estimate D2E/DX2                          !
 !       D4        241.7012   estimate D2E/DX2                          !
 !       D5         60.118    estimate D2E/DX2                          !
 !       D6        239.6277   estimate D2E/DX2                          !
 !       D7        119.3435   estimate D2E/DX2                          !
 !       D8        300.1438   estimate D2E/DX2                          !
 ------------------------------------------------------------------------
 Trust Radius=3.00D-01 FncErr=1.00D-07 GrdErr=1.00D-06
 Number of steps in this run=     31 maximum allowed number of steps=    100.
 GradGradGradGradGradGradGradGradGradGradGradGradGradGradGradGradGradGrad

 Leave Link  103 at Thu Aug  5 16:40:42 2021, MaxMem=  2684354560 cpu:         0.2
 (Enter /soft/gaussian/09-e.01/g09/l202.exe)
 ---------------------------------------------------------------------------------------------------
                            Z-MATRIX (ANGSTROMS AND DEGREES)
   CD    Cent   Atom    N1       Length/X        N2       Alpha/Y        N3        Beta/Z          J
 ---------------------------------------------------------------------------------------------------
      1      1  C 
      2      2  C        1   1.514604(     1)
      3      3  H        1   1.094971(     2)      2  110.701(     9)
      4      4  H        1   1.093559(     3)      2  110.888(    10)      3  120.819(    16)      0
      5      5  H        1   1.094948(     4)      2  110.601(    11)      3  241.701(    17)      0
      6      6  O        2   1.420178(     5)      1  109.979(    12)      3   60.118(    18)      0
      7      7  H        2   1.094207(     6)      1  111.023(    13)      6  239.628(    19)      0
      8      8  H        2   1.093867(     7)      1  110.486(    14)      6  119.343(    20)      0
      9      9  H        6   0.972421(     8)      2  107.545(    15)      1  300.144(    21)      0
 ---------------------------------------------------------------------------------------------------
                         Z-Matrix orientation:                         
 ---------------------------------------------------------------------
 Center     Atomic      Atomic             Coordinates (Angstroms)
 Number     Number       Type             X           Y           Z
 ---------------------------------------------------------------------
      1          6           0        0.000000    0.000000    0.000000
      2          6           0        0.000000    0.000000    1.514604
      3          1           0        1.024280    0.000000   -0.387056
      4          1           0       -0.523436   -0.877417   -0.389903
      5          1           0       -0.485888    0.902438   -0.385267
      6          8           0        0.664971    1.157263    1.999849
      7          1           0        0.506756   -0.886793    1.907142
      8          1           0       -1.024644    0.009631    1.897430
      9          1           0        1.576692    1.134609    1.662427
 ---------------------------------------------------------------------
                    Distance matrix (angstroms):
                    1          2          3          4          5
     1  C    0.000000
     2  C    1.514604   0.000000
     3  H    1.094971   2.159968   0.000000
     4  H    1.093559   2.161248   1.779128   0.000000
     5  H    1.094948   2.158701   1.759262   1.780257   0.000000
     6  O    2.404337   1.420178   2.676878   3.356062   2.660487
     7  H    2.163422   1.094207   2.513479   2.517499   3.072755
     8  H    2.156439   1.093867   3.068723   2.503989   2.509595
     9  H    2.556747   1.948114   2.406839   3.559613   2.915680
                    6          7          8          9
     6  O    0.000000
     7  H    2.052264   0.000000
     8  H    2.045079   1.774502   0.000000
     9  H    0.972421   2.300155   2.843898   0.000000
 Stoichiometry    C2H6O
 Framework group  C1[X(C2H6O)]
 Deg. of freedom    21
 Full point group                 C1      NOp   1
 Largest Abelian subgroup         C1      NOp   1
 Largest concise Abelian subgroup C1      NOp   1
                         Standard orientation:                         
 ---------------------------------------------------------------------
 Center     Atomic      Atomic             Coordinates (Angstroms)
 Number     Number       Type             X           Y           Z
 ---------------------------------------------------------------------
      1          6           0       -1.189009   -0.242568   -0.020200
      2          6           0        0.082500    0.577704    0.046469
      3          1           0       -1.204617   -0.997509    0.772757
      4          1           0       -2.070744    0.395774    0.084368
      5          1           0       -1.251536   -0.779640   -0.972332
      6          8           0        1.213425   -0.266417   -0.112822
      7          1           0        0.164500    1.097426    1.005872
      8          1           0        0.098797    1.324283   -0.752842
      9          1           0        1.195260   -0.919814    0.607139
 ---------------------------------------------------------------------
 Rotational constants (GHZ):     33.3038157      9.5409386      8.3219281
 Leave Link  202 at Thu Aug  5 16:40:42 2021, MaxMem=  2684354560 cpu:         0.1
 (Enter /soft/gaussian/09-e.01/g09/l301.exe)
 Standard basis: 6-31G(d) (6D, 7F)
 Ernie: Thresh=  0.10000D-02 Tol=  0.10000D-05 Strict=F.
 There are    57 symmetry adapted cartesian basis functions of A   symmetry.
 There are    57 symmetry adapted basis functions of A   symmetry.
    57 basis functions,   108 primitive gaussians,    57 cartesian basis functions
    13 alpha electrons       13 beta electrons
       nuclear repulsion energy        82.0242160100 Hartrees.
 IExCor= 4639 DFT=T Ex+Corr=wB97XD ExCW=0 ScaHFX=  1.000000
 ScaDFX=  1.000000  1.000000  1.000000  1.000000 ScalE2=  1.000000  1.000000
 IRadAn=      5 IRanWt=     -1 IRanGd=            0 ICorTp=0 IEmpDi=121
  HFx wShort=  0.000000 wLong=  0.200000 cFull=  0.222036 cShort=  0.000000 cLong=  0.777964
  DFx wShort=  0.000000 wLong=  0.200000 cFull=  0.000000 cShort=  0.000000 cLong=  1.000000
 NAtoms=    9 NActive=    9 NUniq=    9 SFac= 1.00D+00 NAtFMM=   60 NAOKFM=F Big=F
 Integral buffers will be    131072 words long.
 Raffenetti 2 integral format.
 Two-electron integral symmetry is turned on.
 R6Disp:  Grimme-D2 Dispersion energy=       -0.0025729302 Hartrees.
 Nuclear repulsion after empirical dispersion term =       82.0216430798 Hartrees.
 Leave Link  301 at Thu Aug  5 16:40:42 2021, MaxMem=  2684354560 cpu:         0.6
 (Enter /soft/gaussian/09-e.01/g09/l302.exe)
 NPDir=0 NMtPBC=     1 NCelOv=     1 NCel=       1 NClECP=     1 NCelD=      1
         NCelK=      1 NCelE2=     1 NClLst=     1 CellRange=     0.0.
 One-electron integrals computed using PRISM.
 NBasis=    57 RedAO= T EigKep=  6.01D-03  NBF=    57
 NBsUse=    57 1.00D-06 EigRej= -1.00D+00 NBFU=    57
 Precomputing XC quadrature grid using
 IXCGrd= 4 IRadAn=           5 IRanWt=          -1 IRanGd=           0 AccXCQ= 0.00D+00.
 Generated NRdTot=       0 NPtTot=           0 NUsed=           0 NTot=          32
 NSgBfM=    57    57    57    57    57 MxSgAt=     9 MxSgA2=     9.
 Leave Link  302 at Thu Aug  5 16:40:43 2021, MaxMem=  2684354560 cpu:         1.8
 (Enter /soft/gaussian/09-e.01/g09/l303.exe)
 DipDrv:  MaxL=1.
 Leave Link  303 at Thu Aug  5 16:40:43 2021, MaxMem=  2684354560 cpu:         0.2
 (Enter /soft/gaussian/09-e.01/g09/l401.exe)
 ExpMin= 1.61D-01 ExpMax= 5.48D+03 ExpMxC= 8.25D+02 IAcc=3 IRadAn=         5 AccDes= 0.00D+00
 Harris functional with IExCor= 4639 and IRadAn=       5 diagonalized for initial guess.
 HarFok:  IExCor= 4639 AccDes= 0.00D+00 IRadAn=         5 IDoV= 1 UseB2=F ITyADJ=14
 ICtDFT=  3500011 ScaDFX=  1.000000  1.000000  1.000000  1.000000
 FoFCou: FMM=F IPFlag=           0 FMFlag=      100000 FMFlg1=           0
         NFxFlg=           0 DoJE=T BraDBF=F KetDBF=T FulRan=T
         wScrn=  0.000000 ICntrl=     500 IOpCl=  0 I1Cent=   200000004 NGrid=           0
         NMat0=    1 NMatS0=      1 NMatT0=    0 NMatD0=    1 NMtDS0=    0 NMtDT0=    0
 Petite list used in FoFCou.
 Harris En= -148.263601121000    
 JPrj=0 DoOrth=F DoCkMO=F.
 Leave Link  401 at Thu Aug  5 16:40:43 2021, MaxMem=  2684354560 cpu:         3.6
 (Enter /soft/gaussian/09-e.01/g09/l502.exe)
 Closed shell SCF:
 Using DIIS extrapolation, IDIIS=  1040.
 Integral symmetry usage will be decided dynamically.
 Keep R1 ints in memory in canonical form, NReq=3630672.
 IVT=       16700 IEndB=       16700 NGot=  2684354560 MDV=  2681603799
 LenX=  2681603799 LenY=  2681600109
 Requested convergence on RMS density matrix=1.00D-08 within  64 cycles.
 Requested convergence on MAX density matrix=1.00D-06.
 Requested convergence on             energy=1.00D-06.
 No special actions if energy rises.
 FoFCou: FMM=F IPFlag=           0 FMFlag=           0 FMFlg1=           0
         NFxFlg=           0 DoJE=F BraDBF=F KetDBF=F FulRan=T
         wScrn=  0.000000 ICntrl=     600 IOpCl=  0 I1Cent=           0 NGrid=           0
         NMat0=    1 NMatS0=   1653 NMatT0=    0 NMatD0=    1 NMtDS0=    0 NMtDT0=    0
 Symmetry not used in FoFCou.
 Integral accuracy reduced to 1.0D-05 until final iterations.

 Cycle   1  Pass 0  IDiag  1:
 E= -154.948261745180    
 DIIS: error= 7.40D-02 at cycle   1 NSaved=   1.
 NSaved= 1 IEnMin= 1 EnMin= -154.948261745180     IErMin= 1 ErrMin= 7.40D-02
 ErrMax= 7.40D-02  0.00D+00 EMaxC= 1.00D-01 BMatC= 1.23D-01 BMatP= 1.23D-01
 IDIUse=3 WtCom= 2.60D-01 WtEn= 7.40D-01
 Coeff-Com:  0.100D+01
 Coeff-En:   0.100D+01
 Coeff:      0.100D+01
 Gap=     0.539 Goal=   None    Shift=    0.000
 GapD=    0.539 DampG=2.000 DampE=0.500 DampFc=1.0000 IDamp=-1.
 RMSDP=4.55D-03 MaxDP=4.75D-02              OVMax= 5.23D-02

 Cycle   2  Pass 0  IDiag  1:
 E= -154.970882760323     Delta-E=       -0.022621015143 Rises=F Damp=F
 DIIS: error= 1.07D-02 at cycle   2 NSaved=   2.
 NSaved= 2 IEnMin= 2 EnMin= -154.970882760323     IErMin= 2 ErrMin= 1.07D-02
 ErrMax= 1.07D-02  0.00D+00 EMaxC= 1.00D-01 BMatC= 1.69D-02 BMatP= 1.23D-01
 IDIUse=3 WtCom= 8.93D-01 WtEn= 1.07D-01
 Coeff-Com:  0.196D+00 0.804D+00
 Coeff-En:   0.855D-01 0.915D+00
 Coeff:      0.185D+00 0.815D+00
 Gap=     0.517 Goal=   None    Shift=    0.000
 RMSDP=2.43D-03 MaxDP=3.84D-02 DE=-2.26D-02 OVMax= 3.61D-02

 Cycle   3  Pass 0  IDiag  1:
 E= -154.978660683669     Delta-E=       -0.007777923346 Rises=F Damp=F
 DIIS: error= 7.73D-03 at cycle   3 NSaved=   3.
 NSaved= 3 IEnMin= 3 EnMin= -154.978660683669     IErMin= 3 ErrMin= 7.73D-03
 ErrMax= 7.73D-03  0.00D+00 EMaxC= 1.00D-01 BMatC= 7.51D-03 BMatP= 1.69D-02
 IDIUse=3 WtCom= 9.23D-01 WtEn= 7.73D-02
 Coeff-Com:  0.861D-02 0.400D+00 0.592D+00
 Coeff-En:   0.000D+00 0.281D+00 0.719D+00
 Coeff:      0.795D-02 0.391D+00 0.601D+00
 Gap=     0.512 Goal=   None    Shift=    0.000
 RMSDP=1.09D-03 MaxDP=1.78D-02 DE=-7.78D-03 OVMax= 1.65D-02

 Cycle   4  Pass 0  IDiag  1:
 E= -154.984147465294     Delta-E=       -0.005486781625 Rises=F Damp=F
 DIIS: error= 1.08D-03 at cycle   4 NSaved=   4.
 NSaved= 4 IEnMin= 4 EnMin= -154.984147465294     IErMin= 4 ErrMin= 1.08D-03
 ErrMax= 1.08D-03  0.00D+00 EMaxC= 1.00D-01 BMatC= 1.04D-04 BMatP= 7.51D-03
 IDIUse=3 WtCom= 9.89D-01 WtEn= 1.08D-02
 Coeff-Com:  0.244D-02 0.146D+00 0.248D+00 0.604D+00
 Coeff-En:   0.000D+00 0.000D+00 0.000D+00 0.100D+01
 Coeff:      0.241D-02 0.144D+00 0.245D+00 0.608D+00
 Gap=     0.507 Goal=   None    Shift=    0.000
 RMSDP=1.29D-04 MaxDP=1.95D-03 DE=-5.49D-03 OVMax= 1.74D-03

 Cycle   5  Pass 0  IDiag  1:
 E= -154.984225663305     Delta-E=       -0.000078198011 Rises=F Damp=F
 DIIS: error= 1.15D-04 at cycle   5 NSaved=   5.
 NSaved= 5 IEnMin= 5 EnMin= -154.984225663305     IErMin= 5 ErrMin= 1.15D-04
 ErrMax= 1.15D-04  0.00D+00 EMaxC= 1.00D-01 BMatC= 1.97D-06 BMatP= 1.04D-04
 IDIUse=3 WtCom= 9.99D-01 WtEn= 1.15D-03
 Coeff-Com: -0.336D-03-0.443D-02 0.791D-03 0.105D+00 0.899D+00
 Coeff-En:   0.000D+00 0.000D+00 0.000D+00 0.000D+00 0.100D+01
 Coeff:     -0.336D-03-0.443D-02 0.790D-03 0.105D+00 0.899D+00
 Gap=     0.507 Goal=   None    Shift=    0.000
 RMSDP=3.48D-05 MaxDP=3.33D-04 DE=-7.82D-05 OVMax= 3.49D-04

 Cycle   6  Pass 0  IDiag  1:
 E= -154.984227759393     Delta-E=       -0.000002096088 Rises=F Damp=F
 DIIS: error= 3.13D-05 at cycle   6 NSaved=   6.
 NSaved= 6 IEnMin= 6 EnMin= -154.984227759393     IErMin= 6 ErrMin= 3.13D-05
 ErrMax= 3.13D-05  0.00D+00 EMaxC= 1.00D-01 BMatC= 6.43D-08 BMatP= 1.97D-06
 IDIUse=1 WtCom= 1.00D+00 WtEn= 0.00D+00
 Coeff-Com: -0.159D-03-0.102D-01-0.155D-01-0.211D-01 0.114D+00 0.933D+00
 Coeff:     -0.159D-03-0.102D-01-0.155D-01-0.211D-01 0.114D+00 0.933D+00
 Gap=     0.507 Goal=   None    Shift=    0.000
 RMSDP=1.01D-05 MaxDP=7.72D-05 DE=-2.10D-06 OVMax= 9.54D-05

 Cycle   7  Pass 0  IDiag  1:
 E= -154.984227857341     Delta-E=       -0.000000097948 Rises=F Damp=F
 DIIS: error= 3.23D-06 at cycle   7 NSaved=   7.
 NSaved= 7 IEnMin= 7 EnMin= -154.984227857341     IErMin= 7 ErrMin= 3.23D-06
 ErrMax= 3.23D-06  0.00D+00 EMaxC= 1.00D-01 BMatC= 1.52D-09 BMatP= 6.43D-08
 IDIUse=1 WtCom= 1.00D+00 WtEn= 0.00D+00
 Coeff-Com:  0.450D-05-0.682D-03-0.111D-02-0.274D-02-0.128D-01 0.734D-01
 Coeff-Com:  0.944D+00
 Coeff:      0.450D-05-0.682D-03-0.111D-02-0.274D-02-0.128D-01 0.734D-01
 Coeff:      0.944D+00
 Gap=     0.507 Goal=   None    Shift=    0.000
 RMSDP=1.74D-06 MaxDP=1.26D-05 DE=-9.79D-08 OVMax= 1.75D-05

 Initial convergence to 1.0D-05 achieved.  Increase integral accuracy.
 Cycle   8  Pass 1  IDiag  1:
 E= -154.984204492252     Delta-E=        0.000023365089 Rises=F Damp=F
 DIIS: error= 2.30D-05 at cycle   1 NSaved=   1.
 NSaved= 1 IEnMin= 1 EnMin= -154.984204492252     IErMin= 1 ErrMin= 2.30D-05
 ErrMax= 2.30D-05  0.00D+00 EMaxC= 1.00D-01 BMatC= 4.69D-08 BMatP= 4.69D-08
 IDIUse=1 WtCom= 1.00D+00 WtEn= 0.00D+00
 Coeff-Com:  0.100D+01
 Coeff:      0.100D+01
 Gap=     0.507 Goal=   None    Shift=    0.000
 RMSDP=1.74D-06 MaxDP=1.26D-05 DE= 2.34D-05 OVMax= 3.79D-05

 Cycle   9  Pass 1  IDiag  1:
 E= -154.984204530149     Delta-E=       -0.000000037897 Rises=F Damp=F
 DIIS: error= 6.41D-06 at cycle   2 NSaved=   2.
 NSaved= 2 IEnMin= 2 EnMin= -154.984204530149     IErMin= 2 ErrMin= 6.41D-06
 ErrMax= 6.41D-06  0.00D+00 EMaxC= 1.00D-01 BMatC= 2.87D-09 BMatP= 4.69D-08
 IDIUse=1 WtCom= 1.00D+00 WtEn= 0.00D+00
 Coeff-Com:  0.419D-01 0.958D+00
 Coeff:      0.419D-01 0.958D+00
 Gap=     0.507 Goal=   None    Shift=    0.000
 RMSDP=1.23D-06 MaxDP=1.83D-05 DE=-3.79D-08 OVMax= 1.96D-05

 Cycle  10  Pass 1  IDiag  1:
 E= -154.984204531679     Delta-E=       -0.000000001530 Rises=F Damp=F
 DIIS: error= 4.30D-06 at cycle   3 NSaved=   3.
 NSaved= 3 IEnMin= 3 EnMin= -154.984204531679     IErMin= 3 ErrMin= 4.30D-06
 ErrMax= 4.30D-06  0.00D+00 EMaxC= 1.00D-01 BMatC= 1.58D-09 BMatP= 2.87D-09
 IDIUse=1 WtCom= 1.00D+00 WtEn= 0.00D+00
 Coeff-Com: -0.415D-01 0.427D+00 0.615D+00
 Coeff:     -0.415D-01 0.427D+00 0.615D+00
 Gap=     0.507 Goal=   None    Shift=    0.000
 RMSDP=5.11D-07 MaxDP=6.74D-06 DE=-1.53D-09 OVMax= 8.17D-06

 Cycle  11  Pass 1  IDiag  1:
 E= -154.984204533015     Delta-E=       -0.000000001336 Rises=F Damp=F
 DIIS: error= 7.59D-07 at cycle   4 NSaved=   4.
 NSaved= 4 IEnMin= 4 EnMin= -154.984204533015     IErMin= 4 ErrMin= 7.59D-07
 ErrMax= 7.59D-07  0.00D+00 EMaxC= 1.00D-01 BMatC= 4.02D-11 BMatP= 1.58D-09
 IDIUse=1 WtCom= 1.00D+00 WtEn= 0.00D+00
 Coeff-Com: -0.161D-01 0.114D+00 0.212D+00 0.690D+00
 Coeff:     -0.161D-01 0.114D+00 0.212D+00 0.690D+00
 Gap=     0.507 Goal=   None    Shift=    0.000
 RMSDP=1.17D-07 MaxDP=1.75D-06 DE=-1.34D-09 OVMax= 1.76D-06

 Cycle  12  Pass 1  IDiag  1:
 E= -154.984204533044     Delta-E=       -0.000000000029 Rises=F Damp=F
 DIIS: error= 2.01D-07 at cycle   5 NSaved=   5.
 NSaved= 5 IEnMin= 5 EnMin= -154.984204533044     IErMin= 5 ErrMin= 2.01D-07
 ErrMax= 2.01D-07  0.00D+00 EMaxC= 1.00D-01 BMatC= 4.39D-12 BMatP= 4.02D-11
 IDIUse=1 WtCom= 1.00D+00 WtEn= 0.00D+00
 Coeff-Com:  0.118D-02-0.278D-01-0.229D-01 0.223D+00 0.826D+00
 Coeff:      0.118D-02-0.278D-01-0.229D-01 0.223D+00 0.826D+00
 Gap=     0.507 Goal=   None    Shift=    0.000
 RMSDP=4.53D-08 MaxDP=4.01D-07 DE=-2.91D-11 OVMax= 5.89D-07

 Cycle  13  Pass 1  IDiag  1:
 E= -154.984204533049     Delta-E=       -0.000000000005 Rises=F Damp=F
 DIIS: error= 2.72D-08 at cycle   6 NSaved=   6.
 NSaved= 6 IEnMin= 6 EnMin= -154.984204533049     IErMin= 6 ErrMin= 2.72D-08
 ErrMax= 2.72D-08  0.00D+00 EMaxC= 1.00D-01 BMatC= 7.36D-14 BMatP= 4.39D-12
 IDIUse=1 WtCom= 1.00D+00 WtEn= 0.00D+00
 Coeff-Com:  0.916D-03-0.904D-02-0.131D-01-0.786D-02 0.963D-01 0.933D+00
 Coeff:      0.916D-03-0.904D-02-0.131D-01-0.786D-02 0.963D-01 0.933D+00
 Gap=     0.507 Goal=   None    Shift=    0.000
 RMSDP=1.23D-08 MaxDP=9.53D-08 DE=-4.69D-12 OVMax= 1.28D-07

 Cycle  14  Pass 1  IDiag  1:
 E= -154.984204533048     Delta-E=        0.000000000000 Rises=F Damp=F
 DIIS: error= 4.38D-09 at cycle   7 NSaved=   7.
 NSaved= 7 IEnMin= 6 EnMin= -154.984204533049     IErMin= 7 ErrMin= 4.38D-09
 ErrMax= 4.38D-09  0.00D+00 EMaxC= 1.00D-01 BMatC= 1.99D-15 BMatP= 7.36D-14
 IDIUse=1 WtCom= 1.00D+00 WtEn= 0.00D+00
 Coeff-Com:  0.234D-04 0.392D-03-0.938D-04-0.856D-02-0.251D-01 0.350D-01
 Coeff-Com:  0.998D+00
 Coeff:      0.234D-04 0.392D-03-0.938D-04-0.856D-02-0.251D-01 0.350D-01
 Coeff:      0.998D+00
 Gap=     0.507 Goal=   None    Shift=    0.000
 RMSDP=2.67D-09 MaxDP=2.20D-08 DE= 1.71D-13 OVMax= 2.92D-08

 SCF Done:  E(RwB97XD) =  -154.984204533     A.U. after   14 cycles
            NFock= 14  Conv=0.27D-08     -V/T= 2.0088
 KE= 1.536253883639D+02 PE=-5.259046228119D+02 EE= 1.352733868351D+02
 Leave Link  502 at Thu Aug  5 16:40:45 2021, MaxMem=  2684354560 cpu:        17.5
 (Enter /soft/gaussian/09-e.01/g09/l508.exe)
 QCSCF skips out because SCF is already converged.
 Leave Link  508 at Thu Aug  5 16:40:46 2021, MaxMem=  2684354560 cpu:         0.0
 (Enter /soft/gaussian/09-e.01/g09/l601.exe)
 Copying SCF densities to generalized density rwf, IOpCl= 0 IROHF=0.

 **********************************************************************

            Population analysis using the SCF density.

 **********************************************************************

 Orbital symmetries:
       Occupied  (A) (A) (A) (A) (A) (A) (A) (A) (A) (A) (A) (A)
                 (A)
       Virtual   (A) (A) (A) (A) (A) (A) (A) (A) (A) (A) (A) (A)
                 (A) (A) (A) (A) (A) (A) (A) (A) (A) (A) (A) (A)
                 (A) (A) (A) (A) (A) (A) (A) (A) (A) (A) (A) (A)
                 (A) (A) (A) (A) (A) (A) (A) (A)
 The electronic state is 1-A.
 Alpha  occ. eigenvalues --  -19.25839 -10.33680 -10.28592  -1.11045  -0.84271
 Alpha  occ. eigenvalues --   -0.71462  -0.58525  -0.53874  -0.51401  -0.46340
 Alpha  occ. eigenvalues --   -0.45062  -0.40068  -0.34428
 Alpha virt. eigenvalues --    0.16256   0.21047   0.22980   0.24357   0.25392
 Alpha virt. eigenvalues --    0.27822   0.30688   0.32960   0.61269   0.63816
 Alpha virt. eigenvalues --    0.65054   0.67826   0.75342   0.77131   0.89955
 Alpha virt. eigenvalues --    0.95808   0.97631   0.99083   0.99914   1.04656
 Alpha virt. eigenvalues --    1.07260   1.12008   1.12419   1.22835   1.45965
 Alpha virt. eigenvalues --    1.52901   1.58901   1.67017   1.84501   1.91976
 Alpha virt. eigenvalues --    2.00228   2.04947   2.18268   2.23423   2.30745
 Alpha virt. eigenvalues --    2.37901   2.46706   2.50885   2.60285   2.72290
 Alpha virt. eigenvalues --    2.92173   3.83150   4.27495   4.49447
          Condensed to atoms (all electrons):
               1          2          3          4          5          6
     1  C    5.203319   0.354576   0.378381   0.352039   0.379199  -0.054647
     2  C    0.354576   4.797662  -0.033123  -0.025146  -0.031223   0.252825
     3  H    0.378381  -0.033123   0.557953  -0.025116  -0.032214  -0.002087
     4  H    0.352039  -0.025146  -0.025116   0.554096  -0.023010   0.003852
     5  H    0.379199  -0.031223  -0.032214  -0.023010   0.524589   0.002713
     6  O   -0.054647   0.252825  -0.002087   0.003852   0.002713   8.261227
     7  H   -0.051939   0.381035  -0.006110   0.001684   0.005215  -0.038627
     8  H   -0.041247   0.392988   0.004658  -0.000671  -0.005740  -0.035035
     9  H   -0.004429  -0.028797   0.005665  -0.000044  -0.000800   0.244018
               7          8          9
     1  C   -0.051939  -0.041247  -0.004429
     2  C    0.381035   0.392988  -0.028797
     3  H   -0.006110   0.004658   0.005665
     4  H    0.001684  -0.000671  -0.000044
     5  H    0.005215  -0.005740  -0.000800
     6  O   -0.038627  -0.035035   0.244018
     7  H    0.613116  -0.041250  -0.005853
     8  H   -0.041250   0.548365   0.006355
     9  H   -0.005853   0.006355   0.383481
 Mulliken charges:
               1
     1  C   -0.515251
     2  C   -0.060797
     3  H    0.151993
     4  H    0.162314
     5  H    0.181271
     6  O   -0.634239
     7  H    0.142728
     8  H    0.171576
     9  H    0.400404
 Sum of Mulliken charges =   0.00000
 Mulliken charges with hydrogens summed into heavy atoms:
               1
     1  C   -0.019673
     2  C    0.253508
     6  O   -0.233835
 Electronic spatial extent (au):  <R**2>=            190.8922
 Charge=              0.0000 electrons
 Dipole moment (field-independent basis, Debye):
    X=             -1.2246    Y=             -0.2026    Z=              1.2176  Tot=              1.7388
 Quadrupole moment (field-independent basis, Debye-Ang):
   XX=            -22.0967   YY=            -18.0464   ZZ=            -18.8442
   XY=             -0.9787   XZ=              1.8625   YZ=             -1.5157
 Traceless Quadrupole moment (field-independent basis, Debye-Ang):
   XX=             -2.4343   YY=              1.6160   ZZ=              0.8183
   XY=             -0.9787   XZ=              1.8625   YZ=             -1.5157
 Octapole moment (field-independent basis, Debye-Ang**2):
  XXX=              1.6523  YYY=             -2.3020  ZZZ=              0.3455  XYY=              3.2211
  XXY=             -1.2025  XXZ=              2.1417  XZZ=              2.3722  YZZ=             -0.9922
  YYZ=              0.8707  XYZ=             -1.7554
 Hexadecapole moment (field-independent basis, Debye-Ang**3):
 XXXX=           -154.5160 YYYY=            -54.4832 ZZZZ=            -32.3840 XXXY=             -6.6060
 XXXZ=              2.8852 YYYX=             -4.0223 YYYZ=             -2.6552 ZZZX=              1.6566
 ZZZY=             -1.0069 XXYY=            -31.8366 XXZZ=            -30.1152 YYZZ=            -12.9079
 XXYZ=             -1.9333 YYXZ=              1.4304 ZZXY=             -0.5416
 N-N= 8.202164307978D+01 E-N=-5.259046228163D+02  KE= 1.536253883639D+02
 No NMR shielding tensors so no spin-rotation constants.
 Leave Link  601 at Thu Aug  5 16:40:46 2021, MaxMem=  2684354560 cpu:         1.7
 (Enter /soft/gaussian/09-e.01/g09/l701.exe)
 Compute integral first derivatives.
 ... and contract with generalized density number  0.
 R6Disp: Adding Grimme-D2 dispersion energy 1st derivatives to the gradient.
 Leave Link  701 at Thu Aug  5 16:40:46 2021, MaxMem=  2684354560 cpu:         1.6
 (Enter /soft/gaussian/09-e.01/g09/l702.exe)
 L702 exits ... SP integral derivatives will be done elsewhere.
 Leave Link  702 at Thu Aug  5 16:40:46 2021, MaxMem=  2684354560 cpu:         0.1
 (Enter /soft/gaussian/09-e.01/g09/l703.exe)
 Compute integral first derivatives, UseDBF=F ICtDFT=           0.
 Integral derivatives from FoFJK, PRISM(SPDF).
 Calling FoFJK, ICntrl=      2127 FMM=F ISym2X=0 I1Cent= 0 IOpClX= 0 NMat=1 NMatS=1 NMatT=0.
 FoFJK:  IHMeth= 1 ICntrl=    2127 DoSepK=T KAlg= 0 I1Cent=   0 FoldK=F
 IRaf=         1 NMat=   1 IRICut=       1 DoRegI=T DoRafI=F ISym2E= 0.
 FoFCou: FMM=F IPFlag=           0 FMFlag=      100000 FMFlg1=         800
         NFxFlg=           0 DoJE=F BraDBF=F KetDBF=F FulRan=T
         wScrn=  0.000000 ICntrl=    2527 IOpCl=  0 I1Cent=           0 NGrid=           0
         NMat0=    1 NMatS0=      1 NMatT0=    0 NMatD0=    1 NMtDS0=    0 NMtDT0=    0
 Symmetry not used in FoFCou.
 Leave Link  703 at Thu Aug  5 16:40:47 2021, MaxMem=  2684354560 cpu:         5.8
 (Enter /soft/gaussian/09-e.01/g09/l716.exe)
 Dipole        =-4.81809294D-01-7.96974792D-02 4.79031222D-01
 ***** Axes restored to original set *****
 -------------------------------------------------------------------
 Center     Atomic                   Forces (Hartrees/Bohr)
 Number     Number              X              Y              Z
 -------------------------------------------------------------------
      1        6          -0.003409692   -0.001595580   -0.004209458
      2        6           0.010870879    0.007496754   -0.002155161
      3        1           0.001244564   -0.002532272   -0.000637988
      4        1           0.000379353   -0.000944661   -0.002471228
      5        1          -0.001319936   -0.000652148    0.001386928
      6        8           0.000833763    0.002732149    0.003131395
      7        1          -0.002264967   -0.006476313   -0.000054829
      8        1           0.001873884    0.002967158    0.002433257
      9        1          -0.008207848   -0.000995087    0.002577083
 -------------------------------------------------------------------
 Cartesian Forces:  Max     0.010870879 RMS     0.003794703
 -----------------------------------------------------------------------------------------------
                       Internal Coordinate Forces (Hartree/Bohr or radian)
  Cent   Atom   N1       Length/X         N2         Alpha/Y        N3         Beta/Z          J
 -----------------------------------------------------------------------------------------------
      1  C 
      2  C        1   0.005932(     1)
      3  H        1   0.001390(     2)      2   0.000325(     9)
      4  H        1   0.001457(     3)      2   0.004317(    10)      3  -0.001563(    16)     0
      5  H        1  -0.000440(     4)      2  -0.002724(    11)      3  -0.002850(    17)     0
      6  O        2  -0.000087(     5)      1   0.015345(    12)      3   0.000467(    18)     0
      7  H        2   0.004180(     6)      1  -0.003443(    13)      6  -0.009998(    19)     0
      8  H        2  -0.000878(     7)      1   0.006047(    14)      6  -0.005779(    20)     0
      9  H        6  -0.008567(     8)      2  -0.002295(    15)      1  -0.000408(    21)     0
 -----------------------------------------------------------------------------------------------
 Internal  Forces:  Max     0.015344721 RMS     0.005303565
 Force constants in Cartesian coordinates: 
                1             2             3             4             5 
      1  0.652661D+00
      2  0.106013D-01  0.665423D+00
      3 -0.987967D-04  0.473473D-03  0.645326D+00
      4 -0.980071D-01 -0.466986D-02 -0.310579D-03  0.671819D+00
      5 -0.448882D-02 -0.104183D+00 -0.520535D-03  0.446979D-01  0.720376D+00
      6  0.198141D-02  0.504627D-02 -0.308923D+00 -0.123717D-02  0.139353D-01
      7 -0.305072D+00 -0.367626D-03  0.872873D-01  0.958779D-02 -0.865610D-05
      8 -0.104132D-02 -0.782800D-01 -0.711042D-03  0.286404D-03  0.136058D-02
      9  0.988990D-01 -0.972862D-03 -0.111453D+00  0.253725D-01 -0.229069D-04
     10 -0.138287D+00 -0.999992D-01 -0.450254D-01  0.400780D-02  0.339112D-02
     11 -0.999921D-01 -0.246251D+00 -0.754590D-01  0.338841D-02  0.766466D-02
     12 -0.512097D-01 -0.858262D-01 -0.113791D+00 -0.130055D-01 -0.218006D-01
     13 -0.128724D+00  0.941012D-01 -0.418525D-01  0.307625D-02 -0.319892D-02
     14  0.947676D-01 -0.254951D+00  0.762171D-01 -0.349079D-02  0.781673D-02
     15 -0.475905D-01  0.863256D-01 -0.111158D+00 -0.120564D-01  0.223441D-01
     16  0.511445D-02  0.347154D-02  0.000000D+00 -0.143986D+00 -0.139082D+00
     17  0.239049D-02  0.976691D-02  0.000000D+00 -0.114668D+00 -0.311261D+00
     18 -0.127098D-01 -0.280505D-01  0.000000D+00 -0.350913D-01 -0.104614D+00
     19  0.356488D-02 -0.349934D-02  0.000000D+00 -0.132580D+00  0.938014D-01
     20 -0.353250D-02  0.774328D-02  0.000000D+00  0.100559D+00 -0.252170D+00
     21 -0.125825D-01  0.220106D-01  0.000000D+00 -0.448713D-01  0.848010D-01
     22  0.950506D-02 -0.720744D-04  0.000000D+00 -0.308575D+00  0.334926D-02
     23 -0.320050D-04  0.149430D-02  0.000000D+00 -0.286156D-02 -0.779183D-01
     24  0.254413D-01 -0.230501D-03  0.000000D+00  0.940735D-01  0.227823D-02
     25 -0.755457D-03  0.434091D-03  0.000000D+00 -0.534200D-02  0.153863D-02
     26  0.132737D-02 -0.762714D-03  0.000000D+00 -0.232413D-01  0.831462D-02
     27 -0.213038D-02  0.122413D-02  0.000000D+00 -0.128738D-01  0.359918D-02
                6             7             8             9            10 
      6  0.646197D+00
      7  0.000000D+00  0.306883D+00
      8  0.000000D+00  0.151272D-03  0.596834D-01
      9  0.000000D+00 -0.941080D-01  0.400317D-03  0.934031D-01
     10  0.000000D+00 -0.576567D-02 -0.264073D-01 -0.152579D-01  0.124453D+00
     11  0.000000D+00  0.186168D-02  0.884922D-02  0.492663D-02  0.109370D+00
     12  0.000000D+00  0.355086D-02  0.155374D-01  0.939676D-02  0.486789D-01
     13  0.000000D+00 -0.563253D-02  0.273104D-01 -0.149056D-01  0.158501D-01
     14  0.000000D+00 -0.163667D-02  0.820388D-02 -0.433118D-02  0.134881D-01
     15  0.000000D+00  0.326991D-02 -0.152267D-01  0.865327D-02  0.116044D-01
     16 -0.528254D-01  0.000000D+00  0.101723D-02  0.000000D+00  0.875806D-03
     17 -0.114935D+00  0.000000D+00 -0.584508D-03  0.000000D+00 -0.503244D-03
     18 -0.120565D+00  0.000000D+00  0.000000D+00  0.000000D+00  0.000000D+00
     19 -0.384612D-01  0.000000D+00 -0.133111D-02  0.000000D+00 -0.114604D-02
     20  0.792940D-01  0.000000D+00 -0.760659D-03  0.000000D+00 -0.654904D-03
     21 -0.114522D+00  0.000000D+00  0.000000D+00  0.000000D+00  0.000000D+00
     22  0.868912D-01  0.000000D+00  0.143626D-04  0.000000D+00  0.123658D-04
     23  0.463920D-02  0.000000D+00  0.152809D-02  0.000000D+00  0.131564D-02
     24 -0.111246D+00  0.000000D+00  0.000000D+00  0.000000D+00  0.000000D+00
     25  0.365109D-02  0.000000D+00  0.000000D+00  0.000000D+00  0.000000D+00
     26  0.120200D-01  0.000000D+00  0.000000D+00  0.000000D+00  0.000000D+00
     27  0.905831D-02  0.000000D+00  0.000000D+00  0.000000D+00  0.000000D+00
               11            12            13            14            15 
     11  0.242526D+00
     12  0.816276D-01  0.950048D-01
     13 -0.147816D-01  0.119854D-01  0.115166D+00
     14 -0.126955D-01  0.104618D-01 -0.103270D+00  0.251712D+00
     15 -0.110953D-01  0.938972D-02  0.447727D-01 -0.823477D-01  0.931154D-01
     16 -0.522475D-03  0.000000D+00 -0.895091D-03 -0.481933D-03  0.000000D+00
     17  0.300218D-03  0.000000D+00  0.514326D-03  0.276922D-03  0.000000D+00
     18  0.000000D+00  0.000000D+00  0.000000D+00  0.000000D+00  0.000000D+00
     19  0.683690D-03  0.000000D+00  0.117128D-02  0.630638D-03  0.000000D+00
     20  0.390693D-03  0.000000D+00  0.669326D-03  0.360377D-03  0.000000D+00
     21  0.000000D+00  0.000000D+00  0.000000D+00  0.000000D+00  0.000000D+00
     22 -0.737701D-05  0.000000D+00 -0.126381D-04 -0.680458D-05  0.000000D+00
     23 -0.784863D-03  0.000000D+00 -0.134461D-02 -0.723961D-03  0.000000D+00
     24  0.000000D+00  0.000000D+00  0.000000D+00  0.000000D+00  0.000000D+00
     25  0.000000D+00  0.000000D+00  0.000000D+00  0.000000D+00  0.000000D+00
     26  0.000000D+00  0.000000D+00  0.000000D+00  0.000000D+00  0.000000D+00
     27  0.000000D+00  0.000000D+00  0.000000D+00  0.000000D+00  0.000000D+00
               16            17            18            19            20 
     16  0.594661D+00
     17  0.115354D+00  0.353128D+00
     18 -0.120931D+00  0.140385D+00  0.197961D+00
     19  0.118281D-01 -0.942899D-02  0.627816D-02  0.121927D+00
     20  0.110046D-01 -0.984930D-02  0.840918D-02 -0.106364D+00  0.245792D+00
     21  0.959088D-02 -0.100782D-01  0.108924D-01  0.455076D-01 -0.829903D-01
     22 -0.477986D-02  0.205976D-02  0.163792D-02 -0.548458D-02 -0.166823D-02
     23 -0.201956D-01  0.592793D-02  0.135381D-01  0.267721D-01  0.847167D-02
     24 -0.122854D-01  0.536386D-02  0.404335D-02 -0.153531D-01 -0.467818D-02
     25 -0.462818D+00  0.428095D-02  0.160816D+00  0.719324D-03 -0.123000D-04
     26  0.294341D-01 -0.477054D-01 -0.296685D-01 -0.126388D-02  0.216115D-04
     27  0.176451D+00 -0.207363D-01 -0.923325D-01  0.202848D-02 -0.346857D-04
               21            22            23            24            25 
     21  0.970751D-01
     22  0.331170D-02  0.308980D+00
     23 -0.154235D-01 -0.304619D-02  0.609372D-01
     24  0.925184D-02 -0.928402D-01 -0.103988D-02  0.952325D-01
     25 -0.956414D-03  0.354401D-03 -0.607788D-03  0.963852D-03  0.467842D+00
     26  0.168045D-02 -0.622695D-03  0.106791D-02 -0.169352D-02 -0.563358D-02
     27 -0.269707D-02  0.999404D-03 -0.171395D-02  0.271805D-02 -0.164475D+00
               26            27 
     26  0.390640D-01
     27  0.176616D-01  0.832532D-01
 Force constants in internal coordinates: 
                1             2             3             4             5 
      1  0.308923D+00
      2  0.000000D+00  0.342444D+00
      3  0.000000D+00  0.000000D+00  0.344046D+00
      4  0.000000D+00  0.000000D+00  0.000000D+00  0.342470D+00
      5  0.000000D+00  0.000000D+00  0.000000D+00  0.000000D+00  0.424336D+00
      6  0.000000D+00  0.000000D+00  0.000000D+00  0.000000D+00  0.000000D+00
      7  0.000000D+00  0.000000D+00  0.000000D+00  0.000000D+00  0.000000D+00
      8  0.000000D+00  0.000000D+00  0.000000D+00  0.000000D+00  0.000000D+00
      9  0.000000D+00  0.000000D+00  0.000000D+00  0.000000D+00  0.000000D+00
     10  0.000000D+00  0.000000D+00  0.000000D+00  0.000000D+00  0.000000D+00
     11  0.000000D+00  0.000000D+00  0.000000D+00  0.000000D+00  0.000000D+00
     12  0.000000D+00  0.000000D+00  0.000000D+00  0.000000D+00  0.000000D+00
     13  0.000000D+00  0.000000D+00  0.000000D+00  0.000000D+00  0.000000D+00
     14  0.000000D+00  0.000000D+00  0.000000D+00  0.000000D+00  0.000000D+00
     15  0.000000D+00  0.000000D+00  0.000000D+00  0.000000D+00  0.000000D+00
     16  0.000000D+00  0.000000D+00  0.000000D+00  0.000000D+00  0.000000D+00
     17  0.000000D+00  0.000000D+00  0.000000D+00  0.000000D+00  0.000000D+00
     18  0.000000D+00  0.000000D+00  0.000000D+00  0.000000D+00  0.000000D+00
     19  0.000000D+00  0.000000D+00  0.000000D+00  0.000000D+00  0.000000D+00
     20  0.000000D+00  0.000000D+00  0.000000D+00  0.000000D+00  0.000000D+00
     21  0.000000D+00  0.000000D+00  0.000000D+00  0.000000D+00  0.000000D+00
                6             7             8             9            10 
      6  0.343310D+00
      7  0.000000D+00  0.343696D+00
      8  0.000000D+00  0.000000D+00  0.528853D+00
      9  0.000000D+00  0.000000D+00  0.000000D+00  0.247652D+00
     10  0.000000D+00  0.000000D+00  0.000000D+00  0.459757D-01  0.250829D+00
     11  0.000000D+00  0.000000D+00  0.000000D+00  0.423114D-01  0.459102D-01
     12  0.000000D+00  0.000000D+00  0.000000D+00  0.000000D+00  0.000000D+00
     13  0.000000D+00  0.000000D+00  0.000000D+00  0.000000D+00  0.000000D+00
     14  0.000000D+00  0.000000D+00  0.000000D+00  0.000000D+00  0.000000D+00
     15  0.000000D+00  0.000000D+00  0.000000D+00  0.000000D+00  0.000000D+00
     16  0.000000D+00  0.000000D+00  0.000000D+00 -0.667405D-01 -0.634128D-04
     17  0.000000D+00  0.000000D+00  0.000000D+00  0.650245D-01 -0.664572D-01
     18  0.000000D+00  0.000000D+00  0.000000D+00  0.000000D+00  0.000000D+00
     19  0.000000D+00  0.000000D+00  0.000000D+00  0.000000D+00  0.000000D+00
     20  0.000000D+00  0.000000D+00  0.000000D+00  0.000000D+00  0.000000D+00
     21  0.000000D+00  0.000000D+00  0.000000D+00  0.000000D+00  0.000000D+00
               11            12            13            14            15 
     11  0.247816D+00
     12  0.000000D+00  0.339757D+00
     13  0.000000D+00  0.483203D-01  0.259550D+00
     14  0.000000D+00  0.461413D-01  0.452249D-01  0.258737D+00
     15  0.000000D+00  0.000000D+00  0.000000D+00  0.000000D+00  0.160000D+00
     16  0.667924D-01  0.000000D+00  0.000000D+00  0.000000D+00  0.000000D+00
     17 -0.164088D-02  0.000000D+00  0.000000D+00  0.000000D+00  0.000000D+00
     18  0.000000D+00  0.564337D-05  0.233177D-04 -0.235460D-04  0.000000D+00
     19  0.000000D+00  0.646358D-01 -0.711625D-02 -0.666602D-01  0.000000D+00
     20  0.000000D+00 -0.635711D-01  0.660224D-01  0.817163D-02  0.000000D+00
     21  0.000000D+00  0.871000D-04  0.128803D-01 -0.129305D-01  0.000000D+00
               16            17            18            19            20 
     16  0.220688D+00
     17 -0.101818D+00  0.223736D+00
     18  0.171829D-01  0.171829D-01  0.515521D-01
     19  0.572765D-02  0.572765D-02  0.171323D-01  0.226427D+00
     20  0.572765D-02  0.572765D-02  0.171566D-01 -0.102383D+00  0.228356D+00
     21  0.000000D+00  0.000000D+00  0.000000D+00 -0.725686D-02 -0.711551D-02
               21 
     21  0.427459D-01
 Leave Link  716 at Thu Aug  5 16:40:47 2021, MaxMem=  2684354560 cpu:         0.3
 (Enter /soft/gaussian/09-e.01/g09/l103.exe)

 GradGradGradGradGradGradGradGradGradGradGradGradGradGradGradGradGradGrad
 Berny optimization.
 Search for a local minimum.
 Step number   1 out of a maximum of   31
 All quantities printed in internal units (Hartrees-Bohrs-Radians)
 Second derivative matrix not updated -- first step.
 ITU=  0
     Eigenvalues ---    0.03250   0.04066   0.08229   0.11621   0.13478
     Eigenvalues ---    0.16000   0.17004   0.23889   0.24635   0.30892
     Eigenvalues ---    0.33826   0.34244   0.34247   0.34331   0.34370
     Eigenvalues ---    0.34405   0.37823   0.39398   0.42434   0.42566
     Eigenvalues ---    0.52885
 RFO step:  Lambda=-2.56248038D-03 EMin= 3.24994530D-02
 Linear search not attempted -- first point.
 Variable       Old X    -DE/DX   Delta X   Delta X   Delta X     New X
                                 (Linear)    (Quad)   (Total)
    R1        2.86219   0.00593   0.00000   0.01904   0.01904   2.88123
    R2        2.06920   0.00139   0.00000   0.00403   0.00403   2.07322
    R3        2.06653   0.00146   0.00000   0.00420   0.00420   2.07073
    R4        2.06915  -0.00044   0.00000  -0.00127  -0.00127   2.06788
    R5        2.68375  -0.00009   0.00000  -0.00020  -0.00020   2.68354
    R6        2.06775   0.00418   0.00000   0.01209   0.01209   2.07984
    R7        2.06711  -0.00088   0.00000  -0.00253  -0.00253   2.06457
    R8        1.83761  -0.00857   0.00000  -0.01612  -0.01612   1.82149
    A2        1.93209   0.00032   0.00000   0.00126   0.00126   1.93335
    A3        1.93536   0.00432   0.00000   0.01490   0.01490   1.95026
    A4        1.93035  -0.00272   0.00000  -0.01092  -0.01092   1.91943
    A5        1.91950   0.01534   0.00000   0.05458   0.05458   1.97408
    A6        1.93772  -0.00344   0.00000  -0.00985  -0.00985   1.92787
    A7        1.92834   0.00605   0.00000  -0.00754  -0.00754   1.92080
    A8        1.87702  -0.00230   0.00000  -0.01412  -0.01412   1.86290
    D3        2.10869  -0.00156   0.00000  -0.01123  -0.01123   2.09746
    D4        4.21848  -0.00285   0.00000  -0.01482  -0.01482   4.20366
    D5        1.04926   0.00047   0.00000   0.06155   0.06155   1.11081
    D6        4.18229  -0.01000   0.00000  -0.08952  -0.08952   4.09277
    D7        2.08294  -0.00578   0.00000  -0.05149  -0.05149   2.03145
    D8        5.23850  -0.00041   0.00000  -0.03089  -0.03089   5.20761
         Item               Value     Threshold  Converged?
 Maximum Force            0.015345     0.000450     NO 
 RMS     Force            0.005304     0.000300     NO 
 Maximum Displacement     0.089522     0.001800     NO 
 RMS     Displacement     0.031045     0.001200     NO 
 Predicted change in Energy=-1.307172D-03
 Lowest energy point so far.  Saving SCF results.
 GradGradGradGradGradGradGradGradGradGradGradGradGradGradGradGradGradGrad

 Leave Link  103 at Thu Aug  5 16:40:47 2021, MaxMem=  2684354560 cpu:         0.2
 (Enter /soft/gaussian/09-e.01/g09/l202.exe)
 ---------------------------------------------------------------------------------------------------
                            Z-MATRIX (ANGSTROMS AND DEGREES)
   CD    Cent   Atom    N1       Length/X        N2       Alpha/Y        N3        Beta/Z          J
 ---------------------------------------------------------------------------------------------------
      1      1  C 
      2      2  C        1   1.524681(     1)
      3      3  H        1   1.097103(     2)      2  110.773(     9)
      4      4  H        1   1.095784(     3)      2  111.742(    10)      3  120.175(    16)      0
      5      5  H        1   1.094274(     4)      2  109.975(    11)      3  240.852(    17)      0
      6      6  O        2   1.420070(     5)      1  113.106(    12)      3   63.645(    18)      0
      7      7  H        2   1.100602(     6)      1  110.459(    13)      6  234.498(    19)      0
      8      8  H        2   1.092526(     7)      1  110.054(    14)      6  116.393(    20)      0
      9      9  H        6   0.963891(     8)      2  106.736(    15)      1  298.374(    21)      0
 ---------------------------------------------------------------------------------------------------
                         Z-Matrix orientation:                         
 ---------------------------------------------------------------------
 Center     Atomic      Atomic             Coordinates (Angstroms)
 Number     Number       Type             X           Y           Z
 ---------------------------------------------------------------------
      1          6           0        0.000000    0.000000    0.000000
      2          6           0        0.000000    0.000000    1.524681
      3          1           0        1.025783    0.000000   -0.389105
      4          1           0       -0.511612   -0.879908   -0.405903
      5          1           0       -0.500918    0.898208   -0.373816
      6          8           0        0.579844    1.170387    2.081974
      7          1           0        0.486385   -0.909264    1.909380
      8          1           0       -1.026288   -0.000682    1.899309
      9          1           0        1.497354    1.192859    1.787430
 ---------------------------------------------------------------------
                    Distance matrix (angstroms):
                    1          2          3          4          5
     1  C    0.000000
     2  C    1.524681   0.000000
     3  H    1.097103   2.171361   0.000000
     4  H    1.095784   2.182463   1.771470   0.000000
     5  H    1.094274   2.159164   1.771391   1.778437   0.000000
     6  O    2.457771   1.420070   2.770361   3.403604   2.696856
     7  H    2.170038   1.100602   2.529970   2.521388   3.074851
     8  H    2.158852   1.092526   3.073733   2.520304   2.500223
     9  H    2.619139   1.932361   2.526380   3.625330   2.958191
                    6          7          8          9
     6  O    0.000000
     7  H    2.088893   0.000000
     8  H    1.996103   1.764597   0.000000
     9  H    0.963891   2.335776   2.793890   0.000000
 Stoichiometry    C2H6O
 Framework group  C1[X(C2H6O)]
 Deg. of freedom    21
 Full point group                 C1      NOp   1
 RotChk:  IX=0 Diff= 9.32D-02
 Largest Abelian subgroup         C1      NOp   1
 Largest concise Abelian subgroup C1      NOp   1
                         Standard orientation:                         
 ---------------------------------------------------------------------
 Center     Atomic      Atomic             Coordinates (Angstroms)
 Number     Number       Type             X           Y           Z
 ---------------------------------------------------------------------
      1          6           0       -1.216823   -0.235724   -0.021102
      2          6           0        0.086064    0.553192    0.047814
      3          1           0       -1.282411   -0.951785    0.807504
      4          1           0       -2.092343    0.420889    0.034277
      5          1           0       -1.262838   -0.800397   -0.957298
      6          8           0        1.239281   -0.260675   -0.108102
      7          1           0        0.132627    1.138452    0.978743
      8          1           0        0.138842    1.262488   -0.781479
      9          1           0        1.236427   -0.889054    0.622800
 ---------------------------------------------------------------------
 Rotational constants (GHZ):     34.5870101      9.1526338      8.1020497
 Leave Link  202 at Thu Aug  5 16:40:47 2021, MaxMem=  2684354560 cpu:         0.1
 (Enter /soft/gaussian/09-e.01/g09/l301.exe)
 Standard basis: 6-31G(d) (6D, 7F)
 Ernie: Thresh=  0.10000D-02 Tol=  0.10000D-05 Strict=F.
 There are    57 symmetry adapted cartesian basis functions of A   symmetry.
 There are    57 symmetry adapted basis functions of A   symmetry.
    57 basis functions,   108 primitive gaussians,    57 cartesian basis functions
    13 alpha electrons       13 beta electrons
       nuclear repulsion energy        81.5883456542 Hartrees.
 IExCor= 4639 DFT=T Ex+Corr=wB97XD ExCW=0 ScaHFX=  1.000000
 ScaDFX=  1.000000  1.000000  1.000000  1.000000 ScalE2=  1.000000  1.000000
 IRadAn=      5 IRanWt=     -1 IRanGd=            0 ICorTp=0 IEmpDi=121
  HFx wShort=  0.000000 wLong=  0.200000 cFull=  0.222036 cShort=  0.000000 cLong=  0.777964
  DFx wShort=  0.000000 wLong=  0.200000 cFull=  0.000000 cShort=  0.000000 cLong=  1.000000
 NAtoms=    9 NActive=    9 NUniq=    9 SFac= 1.00D+00 NAtFMM=   60 NAOKFM=F Big=F
 Integral buffers will be    131072 words long.
 Raffenetti 2 integral format.
 Two-electron integral symmetry is turned on.
 R6Disp:  Grimme-D2 Dispersion energy=       -0.0025696644 Hartrees.
 Nuclear repulsion after empirical dispersion term =       81.5857759897 Hartrees.
 Leave Link  301 at Thu Aug  5 16:40:47 2021, MaxMem=  2684354560 cpu:         0.4
 (Enter /soft/gaussian/09-e.01/g09/l302.exe)
 NPDir=0 NMtPBC=     1 NCelOv=     1 NCel=       1 NClECP=     1 NCelD=      1
         NCelK=      1 NCelE2=     1 NClLst=     1 CellRange=     0.0.
 One-electron integrals computed using PRISM.
 NBasis=    57 RedAO= T EigKep=  6.13D-03  NBF=    57
 NBsUse=    57 1.00D-06 EigRej= -1.00D+00 NBFU=    57
 Precomputing XC quadrature grid using
 IXCGrd= 4 IRadAn=           5 IRanWt=          -1 IRanGd=           0 AccXCQ= 0.00D+00.
 Generated NRdTot=       0 NPtTot=           0 NUsed=           0 NTot=          32
 NSgBfM=    57    57    57    57    57 MxSgAt=     9 MxSgA2=     9.
 Leave Link  302 at Thu Aug  5 16:40:47 2021, MaxMem=  2684354560 cpu:         1.5
 (Enter /soft/gaussian/09-e.01/g09/l303.exe)
 DipDrv:  MaxL=1.
 Leave Link  303 at Thu Aug  5 16:40:47 2021, MaxMem=  2684354560 cpu:         0.2
 (Enter /soft/gaussian/09-e.01/g09/l401.exe)
 Initial guess from the checkpoint file:  "/scratch/kmoore/Gau-10393.chk"
 B after Tr=    -0.000000    0.000000   -0.000000
         Rot=    0.999913    0.012737    0.003218    0.001377 Ang=   1.51 deg.
 Guess basis will be translated and rotated to current coordinates.
 JPrj=2 DoOrth=T DoCkMO=T.
 Generating alternative initial guess.
 ExpMin= 1.61D-01 ExpMax= 5.48D+03 ExpMxC= 8.25D+02 IAcc=2 IRadAn=         4 AccDes= 0.00D+00
 Harris functional with IExCor= 4639 and IRadAn=       4 diagonalized for initial guess.
 HarFok:  IExCor= 4639 AccDes= 0.00D+00 IRadAn=         4 IDoV= 1 UseB2=F ITyADJ=14
 ICtDFT=  3500011 ScaDFX=  1.000000  1.000000  1.000000  1.000000
 FoFCou: FMM=F IPFlag=           0 FMFlag=      100000 FMFlg1=           0
         NFxFlg=           0 DoJE=T BraDBF=F KetDBF=T FulRan=T
         wScrn=  0.000000 ICntrl=     500 IOpCl=  0 I1Cent=   200000004 NGrid=           0
         NMat0=    1 NMatS0=      1 NMatT0=    0 NMatD0=    1 NMtDS0=    0 NMtDT0=    0
 Petite list used in FoFCou.
 Harris En= -148.263362326432    
 Leave Link  401 at Thu Aug  5 16:40:48 2021, MaxMem=  2684354560 cpu:         2.2
 (Enter /soft/gaussian/09-e.01/g09/l502.exe)
 Closed shell SCF:
 Using DIIS extrapolation, IDIIS=  1040.
 Integral symmetry usage will be decided dynamically.
 Keep R1 ints in memory in canonical form, NReq=3630672.
 IVT=       16700 IEndB=       16700 NGot=  2684354560 MDV=  2681603799
 LenX=  2681603799 LenY=  2681600109
 Requested convergence on RMS density matrix=1.00D-08 within  64 cycles.
 Requested convergence on MAX density matrix=1.00D-06.
 Requested convergence on             energy=1.00D-06.
 No special actions if energy rises.
 FoFCou: FMM=F IPFlag=           0 FMFlag=           0 FMFlg1=           0
         NFxFlg=           0 DoJE=F BraDBF=F KetDBF=F FulRan=T
         wScrn=  0.000000 ICntrl=     600 IOpCl=  0 I1Cent=           0 NGrid=           0
         NMat0=    1 NMatS0=   1653 NMatT0=    0 NMatD0=    1 NMtDS0=    0 NMtDT0=    0
 Symmetry not used in FoFCou.
 Integral accuracy reduced to 1.0D-05 until final iterations.

 Cycle   1  Pass 0  IDiag  1:
 E= -154.984157285484    
 DIIS: error= 2.28D-03 at cycle   1 NSaved=   1.
 NSaved= 1 IEnMin= 1 EnMin= -154.984157285484     IErMin= 1 ErrMin= 2.28D-03
 ErrMax= 2.28D-03  0.00D+00 EMaxC= 1.00D-01 BMatC= 5.68D-04 BMatP= 5.68D-04
 IDIUse=3 WtCom= 9.77D-01 WtEn= 2.28D-02
 Coeff-Com:  0.100D+01
 Coeff-En:   0.100D+01
 Coeff:      0.100D+01
 Gap=     1.772 Goal=   None    Shift=    0.000
 GapD=    1.772 DampG=2.000 DampE=1.000 DampFc=2.0000 IDamp=-1.
 RMSDP=5.78D-04 MaxDP=3.93D-03              OVMax= 7.52D-03

 Cycle   2  Pass 0  IDiag  1:
 E= -154.985086032756     Delta-E=       -0.000928747272 Rises=F Damp=F
 DIIS: error= 5.11D-04 at cycle   2 NSaved=   2.
 NSaved= 2 IEnMin= 2 EnMin= -154.985086032756     IErMin= 2 ErrMin= 5.11D-04
 ErrMax= 5.11D-04  0.00D+00 EMaxC= 1.00D-01 BMatC= 3.58D-05 BMatP= 5.68D-04
 IDIUse=3 WtCom= 9.95D-01 WtEn= 5.11D-03
 Coeff-Com: -0.868D-01 0.109D+01
 Coeff-En:   0.000D+00 0.100D+01
 Coeff:     -0.863D-01 0.109D+01
 Gap=     0.511 Goal=   None    Shift=    0.000
 RMSDP=1.99D-04 MaxDP=2.42D-03 DE=-9.29D-04 OVMax= 2.78D-03

 Cycle   3  Pass 0  IDiag  1:
 E= -154.985130771779     Delta-E=       -0.000044739023 Rises=F Damp=F
 DIIS: error= 5.03D-04 at cycle   3 NSaved=   3.
 NSaved= 3 IEnMin= 3 EnMin= -154.985130771779     IErMin= 3 ErrMin= 5.03D-04
 ErrMax= 5.03D-04  0.00D+00 EMaxC= 1.00D-01 BMatC= 2.63D-05 BMatP= 3.58D-05
 IDIUse=3 WtCom= 9.95D-01 WtEn= 5.03D-03
 Coeff-Com: -0.102D+00 0.538D+00 0.564D+00
 Coeff-En:   0.000D+00 0.000D+00 0.100D+01
 Coeff:     -0.101D+00 0.536D+00 0.566D+00
 Gap=     0.513 Goal=   None    Shift=    0.000
 RMSDP=6.84D-05 MaxDP=1.08D-03 DE=-4.47D-05 OVMax= 9.39D-04

 Cycle   4  Pass 0  IDiag  1:
 E= -154.985150674626     Delta-E=       -0.000019902848 Rises=F Damp=F
 DIIS: error= 7.41D-05 at cycle   4 NSaved=   4.
 NSaved= 4 IEnMin= 4 EnMin= -154.985150674626     IErMin= 4 ErrMin= 7.41D-05
 ErrMax= 7.41D-05  0.00D+00 EMaxC= 1.00D-01 BMatC= 4.36D-07 BMatP= 2.63D-05
 IDIUse=1 WtCom= 1.00D+00 WtEn= 0.00D+00
 Coeff-Com: -0.102D-01-0.411D-02 0.903D-01 0.924D+00
 Coeff:     -0.102D-01-0.411D-02 0.903D-01 0.924D+00
 Gap=     0.512 Goal=   None    Shift=    0.000
 RMSDP=2.14D-05 MaxDP=1.94D-04 DE=-1.99D-05 OVMax= 2.40D-04

 Cycle   5  Pass 0  IDiag  1:
 E= -154.985151222495     Delta-E=       -0.000000547868 Rises=F Damp=F
 DIIS: error= 1.76D-05 at cycle   5 NSaved=   5.
 NSaved= 5 IEnMin= 5 EnMin= -154.985151222495     IErMin= 5 ErrMin= 1.76D-05
 ErrMax= 1.76D-05  0.00D+00 EMaxC= 1.00D-01 BMatC= 3.63D-08 BMatP= 4.36D-07
 IDIUse=1 WtCom= 1.00D+00 WtEn= 0.00D+00
 Coeff-Com:  0.388D-02-0.352D-01-0.117D-01 0.239D+00 0.804D+00
 Coeff:      0.388D-02-0.352D-01-0.117D-01 0.239D+00 0.804D+00
 Gap=     0.512 Goal=   None    Shift=    0.000
 RMSDP=5.92D-06 MaxDP=4.67D-05 DE=-5.48D-07 OVMax= 7.55D-05

 Initial convergence to 1.0D-05 achieved.  Increase integral accuracy.
 Cycle   6  Pass 1  IDiag  1:
 E= -154.985162519540     Delta-E=       -0.000011297046 Rises=F Damp=F
 DIIS: error= 1.80D-05 at cycle   1 NSaved=   1.
 NSaved= 1 IEnMin= 1 EnMin= -154.985162519540     IErMin= 1 ErrMin= 1.80D-05
 ErrMax= 1.80D-05  0.00D+00 EMaxC= 1.00D-01 BMatC= 4.79D-08 BMatP= 4.79D-08
 IDIUse=1 WtCom= 1.00D+00 WtEn= 0.00D+00
 Coeff-Com:  0.100D+01
 Coeff:      0.100D+01
 Gap=     0.512 Goal=   None    Shift=    0.000
 RMSDP=5.92D-06 MaxDP=4.67D-05 DE=-1.13D-05 OVMax= 4.08D-05

 Cycle   7  Pass 1  IDiag  1:
 E= -154.985162559444     Delta-E=       -0.000000039904 Rises=F Damp=F
 DIIS: error= 5.64D-06 at cycle   2 NSaved=   2.
 NSaved= 2 IEnMin= 2 EnMin= -154.985162559444     IErMin= 2 ErrMin= 5.64D-06
 ErrMax= 5.64D-06  0.00D+00 EMaxC= 1.00D-01 BMatC= 2.47D-09 BMatP= 4.79D-08
 IDIUse=1 WtCom= 1.00D+00 WtEn= 0.00D+00
 Coeff-Com: -0.204D-03 0.100D+01
 Coeff:     -0.204D-03 0.100D+01
 Gap=     0.512 Goal=   None    Shift=    0.000
 RMSDP=1.33D-06 MaxDP=1.75D-05 DE=-3.99D-08 OVMax= 2.01D-05

 Cycle   8  Pass 1  IDiag  1:
 E= -154.985162560524     Delta-E=       -0.000000001080 Rises=F Damp=F
 DIIS: error= 5.34D-06 at cycle   3 NSaved=   3.
 NSaved= 3 IEnMin= 3 EnMin= -154.985162560524     IErMin= 3 ErrMin= 5.34D-06
 ErrMax= 5.34D-06  0.00D+00 EMaxC= 1.00D-01 BMatC= 1.87D-09 BMatP= 2.47D-09
 IDIUse=1 WtCom= 1.00D+00 WtEn= 0.00D+00
 Coeff-Com: -0.512D-01 0.486D+00 0.566D+00
 Coeff:     -0.512D-01 0.486D+00 0.566D+00
 Gap=     0.512 Goal=   None    Shift=    0.000
 RMSDP=5.18D-07 MaxDP=9.26D-06 DE=-1.08D-09 OVMax= 8.03D-06

 Cycle   9  Pass 1  IDiag  1:
 E= -154.985162561880     Delta-E=       -0.000000001355 Rises=F Damp=F
 DIIS: error= 4.66D-07 at cycle   4 NSaved=   4.
 NSaved= 4 IEnMin= 4 EnMin= -154.985162561880     IErMin= 4 ErrMin= 4.66D-07
 ErrMax= 4.66D-07  0.00D+00 EMaxC= 1.00D-01 BMatC= 2.48D-11 BMatP= 1.87D-09
 IDIUse=1 WtCom= 1.00D+00 WtEn= 0.00D+00
 Coeff-Com: -0.139D-01 0.946D-01 0.142D+00 0.777D+00
 Coeff:     -0.139D-01 0.946D-01 0.142D+00 0.777D+00
 Gap=     0.512 Goal=   None    Shift=    0.000
 RMSDP=1.18D-07 MaxDP=1.28D-06 DE=-1.36D-09 OVMax= 1.44D-06

 Cycle  10  Pass 1  IDiag  1:
 E= -154.985162561902     Delta-E=       -0.000000000023 Rises=F Damp=F
 DIIS: error= 2.01D-07 at cycle   5 NSaved=   5.
 NSaved= 5 IEnMin= 5 EnMin= -154.985162561902     IErMin= 5 ErrMin= 2.01D-07
 ErrMax= 2.01D-07  0.00D+00 EMaxC= 1.00D-01 BMatC= 4.95D-12 BMatP= 2.48D-11
 IDIUse=1 WtCom= 1.00D+00 WtEn= 0.00D+00
 Coeff-Com:  0.294D-02-0.419D-01-0.427D-01 0.269D+00 0.812D+00
 Coeff:      0.294D-02-0.419D-01-0.427D-01 0.269D+00 0.812D+00
 Gap=     0.512 Goal=   None    Shift=    0.000
 RMSDP=5.35D-08 MaxDP=4.51D-07 DE=-2.28D-11 OVMax= 6.11D-07

 Cycle  11  Pass 1  IDiag  1:
 E= -154.985162561908     Delta-E=       -0.000000000006 Rises=F Damp=F
 DIIS: error= 2.50D-08 at cycle   6 NSaved=   6.
 NSaved= 6 IEnMin= 6 EnMin= -154.985162561908     IErMin= 6 ErrMin= 2.50D-08
 ErrMax= 2.50D-08  0.00D+00 EMaxC= 1.00D-01 BMatC= 7.00D-14 BMatP= 4.95D-12
 IDIUse=1 WtCom= 1.00D+00 WtEn= 0.00D+00
 Coeff-Com:  0.869D-03-0.776D-02-0.102D-01-0.116D-01 0.744D-01 0.954D+00
 Coeff:      0.869D-03-0.776D-02-0.102D-01-0.116D-01 0.744D-01 0.954D+00
 Gap=     0.512 Goal=   None    Shift=    0.000
 RMSDP=1.32D-08 MaxDP=1.15D-07 DE=-5.63D-12 OVMax= 1.88D-07

 Cycle  12  Pass 1  IDiag  1:
 E= -154.985162561909     Delta-E=       -0.000000000001 Rises=F Damp=F
 DIIS: error= 6.08D-09 at cycle   7 NSaved=   7.
 NSaved= 7 IEnMin= 7 EnMin= -154.985162561909     IErMin= 7 ErrMin= 6.08D-09
 ErrMax= 6.08D-09  0.00D+00 EMaxC= 1.00D-01 BMatC= 3.74D-15 BMatP= 7.00D-14
 IDIUse=1 WtCom= 1.00D+00 WtEn= 0.00D+00
 Coeff-Com: -0.612D-04 0.134D-02 0.108D-02-0.144D-01-0.365D-01 0.639D-01
 Coeff-Com:  0.985D+00
 Coeff:     -0.612D-04 0.134D-02 0.108D-02-0.144D-01-0.365D-01 0.639D-01
 Coeff:      0.985D+00
 Gap=     0.512 Goal=   None    Shift=    0.000
 RMSDP=3.53D-09 MaxDP=3.77D-08 DE=-5.68D-13 OVMax= 6.16D-08

 SCF Done:  E(RwB97XD) =  -154.985162562     A.U. after   12 cycles
            NFock= 12  Conv=0.35D-08     -V/T= 2.0090
 KE= 1.536069590709D+02 PE=-5.249994629175D+02 EE= 1.348215652950D+02
 Leave Link  502 at Thu Aug  5 16:40:49 2021, MaxMem=  2684354560 cpu:        15.9
 (Enter /soft/gaussian/09-e.01/g09/l508.exe)
 QCSCF skips out because SCF is already converged.
 Leave Link  508 at Thu Aug  5 16:40:49 2021, MaxMem=  2684354560 cpu:         0.0
 (Enter /soft/gaussian/09-e.01/g09/l701.exe)
 Compute integral first derivatives.
 ... and contract with generalized density number  0.
 R6Disp: Adding Grimme-D2 dispersion energy 1st derivatives to the gradient.
 Leave Link  701 at Thu Aug  5 16:40:49 2021, MaxMem=  2684354560 cpu:         1.4
 (Enter /soft/gaussian/09-e.01/g09/l702.exe)
 L702 exits ... SP integral derivatives will be done elsewhere.
 Leave Link  702 at Thu Aug  5 16:40:49 2021, MaxMem=  2684354560 cpu:         0.1
 (Enter /soft/gaussian/09-e.01/g09/l703.exe)
 Compute integral first derivatives, UseDBF=F ICtDFT=           0.
 Integral derivatives from FoFJK, PRISM(SPDF).
 Calling FoFJK, ICntrl=      2127 FMM=F ISym2X=0 I1Cent= 0 IOpClX= 0 NMat=1 NMatS=1 NMatT=0.
 FoFJK:  IHMeth= 1 ICntrl=    2127 DoSepK=T KAlg= 0 I1Cent=   0 FoldK=F
 IRaf=         1 NMat=   1 IRICut=       1 DoRegI=T DoRafI=F ISym2E= 0.
 FoFCou: FMM=F IPFlag=           0 FMFlag=      100000 FMFlg1=         800
         NFxFlg=           0 DoJE=F BraDBF=F KetDBF=F FulRan=T
         wScrn=  0.000000 ICntrl=    2527 IOpCl=  0 I1Cent=           0 NGrid=           0
         NMat0=    1 NMatS0=      1 NMatT0=    0 NMatD0=    1 NMtDS0=    0 NMtDT0=    0
 Symmetry not used in FoFCou.
 Leave Link  703 at Thu Aug  5 16:40:50 2021, MaxMem=  2684354560 cpu:         5.2
 (Enter /soft/gaussian/09-e.01/g09/l716.exe)
 Dipole        =-4.77648927D-01-8.68284680D-02 4.84784740D-01
 ***** Axes restored to original set *****
 -------------------------------------------------------------------
 Center     Atomic                   Forces (Hartrees/Bohr)
 Number     Number              X              Y              Z
 -------------------------------------------------------------------
      1        6           0.001462789    0.002126464    0.000349026
      2        6          -0.002877277    0.002630550    0.002013308
      3        1           0.000051172   -0.000403388   -0.000297268
      4        1           0.000214863   -0.000032688    0.001319283
      5        1          -0.000198722   -0.000129806   -0.000096665
      6        8           0.000432051   -0.004127666   -0.003433626
      7        1           0.000836206    0.000127883   -0.000061366
      8        1          -0.001178773   -0.001508335   -0.000283529
      9        1           0.001257690    0.001316986    0.000490836
 -------------------------------------------------------------------
 Cartesian Forces:  Max     0.004127666 RMS     0.001553706
 -----------------------------------------------------------------------------------------------
                       Internal Coordinate Forces (Hartree/Bohr or radian)
  Cent   Atom   N1       Length/X         N2         Alpha/Y        N3         Beta/Z          J
 -----------------------------------------------------------------------------------------------
      1  C 
      2  C        1  -0.001274(     1)
      3  H        1   0.000153(     2)      2   0.000539(     9)
      4  H        1  -0.000563(     3)      2  -0.002476(    10)      3  -0.000389(    16)     0
      5  H        1   0.000017(     4)      2   0.000200(    11)      3  -0.000460(    17)     0
      6  O        2  -0.002781(     5)      1  -0.004037(    12)      3  -0.000109(    18)     0
      7  H        2   0.000242(     6)      1  -0.000324(    13)      6   0.001554(    19)     0
      8  H        2   0.001011(     7)      1  -0.001385(    14)      6   0.002924(    20)     0
      9  H        6   0.001078(     8)      2   0.002817(    15)      1  -0.000095(    21)     0
 -----------------------------------------------------------------------------------------------
 Internal  Forces:  Max     0.004037125 RMS     0.001633191
 Leave Link  716 at Thu Aug  5 16:40:50 2021, MaxMem=  2684354560 cpu:         0.2
 (Enter /soft/gaussian/09-e.01/g09/l103.exe)

 GradGradGradGradGradGradGradGradGradGradGradGradGradGradGradGradGradGrad
 Berny optimization.
 Search for a local minimum.
 Step number   2 out of a maximum of   31
 All quantities printed in internal units (Hartrees-Bohrs-Radians)
 Update second derivatives using D2CorN and points    1    2
 DE= -9.58D-04 DEPred=-1.31D-03 R= 7.33D-01
 TightC=F SS=  1.41D+00  RLast= 1.42D-01 DXNew= 5.0454D-01 4.2680D-01
 Trust test= 7.33D-01 RLast= 1.42D-01 DXMaxT set to 4.27D-01
 ITU=  1  0
     Eigenvalues ---    0.03455   0.04049   0.08796   0.11830   0.13482
     Eigenvalues ---    0.16095   0.17411   0.23888   0.25329   0.31030
     Eigenvalues ---    0.33848   0.34240   0.34247   0.34308   0.34385
     Eigenvalues ---    0.34433   0.38128   0.39411   0.42406   0.43098
     Eigenvalues ---    0.52992
 RFO step:  Lambda=-8.20607697D-05 EMin= 3.45458104D-02
 Quartic linear search produced a step of -0.19768.
 Variable       Old X    -DE/DX   Delta X   Delta X   Delta X     New X
                                 (Linear)    (Quad)   (Total)
    R1        2.88123  -0.00127  -0.00376   0.00052  -0.00324   2.87799
    R2        2.07322   0.00015  -0.00080   0.00118   0.00039   2.07361
    R3        2.07073  -0.00056  -0.00083  -0.00048  -0.00131   2.06942
    R4        2.06788   0.00002   0.00025  -0.00022   0.00003   2.06791
    R5        2.68354  -0.00278   0.00004  -0.00538  -0.00534   2.67820
    R6        2.07984   0.00024  -0.00239   0.00303   0.00064   2.08048
    R7        2.06457   0.00101   0.00050   0.00188   0.00238   2.06696
    R8        1.82149   0.00108   0.00319  -0.00158   0.00160   1.82309
    A2        1.93335   0.00054  -0.00025   0.00451   0.00426   1.93761
    A3        1.95026  -0.00248  -0.00294  -0.00909  -0.01204   1.93822
    A4        1.91943   0.00020   0.00216   0.00159   0.00375   1.92318
    A5        1.97408  -0.00404  -0.01079   0.00173  -0.00906   1.96502
    A6        1.92787  -0.00032   0.00195  -0.00565  -0.00370   1.92417
    A7        1.92080  -0.00139   0.00149   0.00023   0.00172   1.92252
    A8        1.86290   0.00282   0.00279   0.01138   0.01417   1.87707
    D3        2.09746  -0.00039   0.00222  -0.00867  -0.00645   2.09100
    D4        4.20366  -0.00046   0.00293  -0.01291  -0.00998   4.19368
    D5        1.11081  -0.00011  -0.01217   0.00719  -0.00498   1.10583
    D6        4.09277   0.00155   0.01770  -0.00140   0.01630   4.10907
    D7        2.03145   0.00292   0.01018   0.00653   0.01671   2.04816
    D8        5.20761  -0.00010   0.00611  -0.00208   0.00403   5.21164
         Item               Value     Threshold  Converged?
 Maximum Force            0.004037     0.000450     NO 
 RMS     Force            0.001633     0.000300     NO 
 Maximum Displacement     0.016710     0.001800     NO 
 RMS     Displacement     0.007726     0.001200     NO 
 Predicted change in Energy=-1.107035D-04
 Lowest energy point so far.  Saving SCF results.
 GradGradGradGradGradGradGradGradGradGradGradGradGradGradGradGradGradGrad

 Leave Link  103 at Thu Aug  5 16:40:50 2021, MaxMem=  2684354560 cpu:         0.1
 (Enter /soft/gaussian/09-e.01/g09/l202.exe)
 ---------------------------------------------------------------------------------------------------
                            Z-MATRIX (ANGSTROMS AND DEGREES)
   CD    Cent   Atom    N1       Length/X        N2       Alpha/Y        N3        Beta/Z          J
 ---------------------------------------------------------------------------------------------------
      1      1  C 
      2      2  C        1   1.522965(     1)
      3      3  H        1   1.097307(     2)      2  111.017(     9)
      4      4  H        1   1.095091(     3)      2  111.052(    10)      3  119.806(    16)      0
      5      5  H        1   1.094292(     4)      2  110.190(    11)      3  240.280(    17)      0
      6      6  O        2   1.417245(     5)      1  112.587(    12)      3   63.359(    18)      0
      7      7  H        2   1.100942(     6)      1  110.247(    13)      6  235.432(    19)      0
      8      8  H        2   1.093786(     7)      1  110.152(    14)      6  117.351(    20)      0
      9      9  H        6   0.964739(     8)      2  107.548(    15)      1  298.605(    21)      0
 ---------------------------------------------------------------------------------------------------
                         Z-Matrix orientation:                         
 ---------------------------------------------------------------------
 Center     Atomic      Atomic             Coordinates (Angstroms)
 Number     Number       Type             X           Y           Z
 ---------------------------------------------------------------------
      1          6           0        0.000000    0.000000    0.000000
      2          6           0        0.000000    0.000000    1.522965
      3          1           0        1.024309    0.000000   -0.393540
      4          1           0       -0.507995   -0.886806   -0.393371
      5          1           0       -0.509167    0.891955   -0.377676
      6          8           0        0.586736    1.169618    2.067316
      7          1           0        0.497484   -0.905221    1.903959
      8          1           0       -1.026746   -0.012726    1.899791
      9          1           0        1.504839    1.198758    1.772428
 ---------------------------------------------------------------------
                    Distance matrix (angstroms):
                    1          2          3          4          5
     1  C    0.000000
     2  C    1.522965   0.000000
     3  H    1.097307   2.173062   0.000000
     4  H    1.095091   2.171826   1.770418   0.000000
     5  H    1.094292   2.160387   1.774087   1.778831   0.000000
     6  O    2.446643   1.417245   2.759582   3.388554   2.693712
     7  H    2.166097   1.100942   2.524970   2.507798   3.073930
     8  H    2.159532   1.093786   3.076745   2.508329   2.504634
     9  H    2.615924   1.940049   2.521774   3.618254   2.961975
                    6          7          8          9
     6  O    0.000000
     7  H    2.083173   0.000000
     8  H    2.007318   1.766307   0.000000
     9  H    0.964739   2.336406   2.809419   0.000000
 Stoichiometry    C2H6O
 Framework group  C1[X(C2H6O)]
 Deg. of freedom    21
 Full point group                 C1      NOp   1
 RotChk:  IX=0 Diff= 9.65D-03
 Largest Abelian subgroup         C1      NOp   1
 Largest concise Abelian subgroup C1      NOp   1
                         Standard orientation:                         
 ---------------------------------------------------------------------
 Center     Atomic      Atomic             Coordinates (Angstroms)
 Number     Number       Type             X           Y           Z
 ---------------------------------------------------------------------
      1          6           0       -1.211223   -0.238482   -0.021478
      2          6           0        0.086168    0.556176    0.047200
      3          1           0       -1.275253   -0.959443    0.803263
      4          1           0       -2.081555    0.422749    0.045764
      5          1           0       -1.264736   -0.793558   -0.963020
      6          8           0        1.233760   -0.260693   -0.108819
      7          1           0        0.133420    1.128002    0.986804
      8          1           0        0.129564    1.278409   -0.773084
      9          1           0        1.238815   -0.896786    0.616495
 ---------------------------------------------------------------------
 Rotational constants (GHZ):     34.3662451      9.2251711      8.1469300
 Leave Link  202 at Thu Aug  5 16:40:50 2021, MaxMem=  2684354560 cpu:         0.1
 (Enter /soft/gaussian/09-e.01/g09/l301.exe)
 Standard basis: 6-31G(d) (6D, 7F)
 Ernie: Thresh=  0.10000D-02 Tol=  0.10000D-05 Strict=F.
 There are    57 symmetry adapted cartesian basis functions of A   symmetry.
 There are    57 symmetry adapted basis functions of A   symmetry.
    57 basis functions,   108 primitive gaussians,    57 cartesian basis functions
    13 alpha electrons       13 beta electrons
       nuclear repulsion energy        81.6883710546 Hartrees.
 IExCor= 4639 DFT=T Ex+Corr=wB97XD ExCW=0 ScaHFX=  1.000000
 ScaDFX=  1.000000  1.000000  1.000000  1.000000 ScalE2=  1.000000  1.000000
 IRadAn=      5 IRanWt=     -1 IRanGd=            0 ICorTp=0 IEmpDi=121
  HFx wShort=  0.000000 wLong=  0.200000 cFull=  0.222036 cShort=  0.000000 cLong=  0.777964
  DFx wShort=  0.000000 wLong=  0.200000 cFull=  0.000000 cShort=  0.000000 cLong=  1.000000
 NAtoms=    9 NActive=    9 NUniq=    9 SFac= 1.00D+00 NAtFMM=   60 NAOKFM=F Big=F
 Integral buffers will be    131072 words long.
 Raffenetti 2 integral format.
 Two-electron integral symmetry is turned on.
 R6Disp:  Grimme-D2 Dispersion energy=       -0.0025714387 Hartrees.
 Nuclear repulsion after empirical dispersion term =       81.6857996159 Hartrees.
 Leave Link  301 at Thu Aug  5 16:40:50 2021, MaxMem=  2684354560 cpu:         0.4
 (Enter /soft/gaussian/09-e.01/g09/l302.exe)
 NPDir=0 NMtPBC=     1 NCelOv=     1 NCel=       1 NClECP=     1 NCelD=      1
         NCelK=      1 NCelE2=     1 NClLst=     1 CellRange=     0.0.
 One-electron integrals computed using PRISM.
 NBasis=    57 RedAO= T EigKep=  6.10D-03  NBF=    57
 NBsUse=    57 1.00D-06 EigRej= -1.00D+00 NBFU=    57
 Precomputing XC quadrature grid using
 IXCGrd= 4 IRadAn=           5 IRanWt=          -1 IRanGd=           0 AccXCQ= 0.00D+00.
 Generated NRdTot=       0 NPtTot=           0 NUsed=           0 NTot=          32
 NSgBfM=    57    57    57    57    57 MxSgAt=     9 MxSgA2=     9.
 Leave Link  302 at Thu Aug  5 16:40:50 2021, MaxMem=  2684354560 cpu:         1.4
 (Enter /soft/gaussian/09-e.01/g09/l303.exe)
 DipDrv:  MaxL=1.
 Leave Link  303 at Thu Aug  5 16:40:50 2021, MaxMem=  2684354560 cpu:         0.2
 (Enter /soft/gaussian/09-e.01/g09/l401.exe)
 Initial guess from the checkpoint file:  "/scratch/kmoore/Gau-10393.chk"
 B after Tr=     0.000000   -0.000000    0.000000
         Rot=    0.999994   -0.003299   -0.000637   -0.000258 Ang=  -0.39 deg.
 Guess basis will be translated and rotated to current coordinates.
 JPrj=2 DoOrth=T DoCkMO=T.
 Leave Link  401 at Thu Aug  5 16:40:50 2021, MaxMem=  2684354560 cpu:         0.5
 (Enter /soft/gaussian/09-e.01/g09/l502.exe)
 Closed shell SCF:
 Using DIIS extrapolation, IDIIS=  1040.
 Integral symmetry usage will be decided dynamically.
 Keep R1 ints in memory in canonical form, NReq=3630672.
 IVT=       16700 IEndB=       16700 NGot=  2684354560 MDV=  2681603799
 LenX=  2681603799 LenY=  2681600109
 Requested convergence on RMS density matrix=1.00D-08 within  64 cycles.
 Requested convergence on MAX density matrix=1.00D-06.
[...]
      7 -0.282425D+00  0.724989D-03  0.848929D-01  0.138556D-03 -0.129676D-02
      8  0.169368D-02 -0.509064D-01  0.439229D-03 -0.157526D-02 -0.100912D-02
      9  0.850804D-01 -0.346842D-03 -0.812099D-01  0.368451D-01  0.588739D-03
     10 -0.107275D+00 -0.101920D+00 -0.444057D-01 -0.138102D-02  0.109370D-02
     11 -0.101720D+00 -0.227866D+00 -0.768486D-01  0.142684D-02  0.717391D-04
     12 -0.437845D-01 -0.755942D-01 -0.843234D-01 -0.168019D-01 -0.291891D-01
     13 -0.112132D+00  0.104852D+00 -0.427531D-01  0.716230D-03 -0.133048D-02
     14  0.104697D+00 -0.231523D+00  0.756094D-01 -0.717258D-03 -0.116160D-02
     15 -0.428874D-01  0.735249D-01 -0.796700D-01 -0.173773D-01  0.323691D-01
     16 -0.680087D-03 -0.783972D-02 -0.455957D-02 -0.124425D+00 -0.762569D-01
     17 -0.101207D-01 -0.108811D-01 -0.110532D-01 -0.351362D-01 -0.199524D+00
     18 -0.220332D-01 -0.431419D-01 -0.165077D-01 -0.226515D-02 -0.527501D-01
     19  0.142974D-02 -0.533604D-04  0.212619D-02 -0.117793D+00  0.965094D-01
     20  0.175229D-02  0.222605D-02  0.468464D-03  0.932975D-01 -0.202932D+00
     21 -0.180117D-01  0.284913D-01 -0.130966D-01 -0.419418D-01  0.715677D-01
     22  0.247080D-02  0.939819D-03 -0.679217D-03 -0.286169D+00  0.433804D-02
     23 -0.378154D-03  0.113742D-02  0.127690D-02  0.147289D-01 -0.528226D-01
     24  0.331204D-01 -0.928990D-03 -0.127880D-01  0.913888D-01  0.186661D-02
     25  0.198152D-02  0.182555D-02 -0.497230D-03 -0.204405D-01  0.363101D-02
     26  0.504687D-03  0.120278D-02  0.333219D-03 -0.432361D-01 -0.712215D-02
     27 -0.307625D-02  0.227234D-03  0.179832D-02 -0.195743D-01 -0.453873D-02
                6             7             8             9            10 
      6  0.503270D+00
      7 -0.180179D-02  0.304697D+00
      8 -0.285625D-03 -0.467809D-03  0.482693D-01
      9 -0.128308D-01 -0.949238D-01 -0.226707D-03  0.888968D-01
     10  0.107391D-02 -0.134657D-01 -0.257701D-01 -0.122564D-01  0.111714D+00
     11  0.227861D-02  0.138260D-02  0.103375D-02  0.112444D-02  0.112259D+00
     12 -0.362162D-02  0.511691D-02  0.107965D-01  0.418303D-02  0.482694D-01
     13  0.407161D-03 -0.135481D-01  0.258795D-01 -0.113783D-01  0.829430D-02
     14 -0.113483D-02 -0.158823D-02  0.149618D-02 -0.114307D-02  0.133944D-01
     15 -0.131152D-01  0.502623D-02 -0.105444D-01  0.372179D-02  0.737913D-02
     16 -0.304109D-01  0.261116D-02  0.948265D-03 -0.890963D-03  0.154989D-02
     17 -0.696035D-01  0.165855D-02  0.868353D-04  0.126275D-02  0.228935D-03
     18 -0.977020D-01  0.251770D-03  0.227223D-03  0.340824D-02 -0.255123D-03
     19 -0.406738D-01  0.803879D-03 -0.638034D-03 -0.583779D-03 -0.668254D-04
     20  0.718957D-01 -0.275973D-03 -0.173911D-03 -0.221140D-04  0.256840D-03
     21 -0.859133D-01  0.746315D-03 -0.407998D-04  0.163901D-02 -0.288515D-03
     22  0.865524D-01  0.161588D-02  0.149812D-03 -0.825403D-03  0.136953D-03
     23 -0.127124D-02 -0.567529D-03  0.101271D-02 -0.152009D-03  0.146507D-03
     24 -0.852507D-01 -0.417767D-03  0.215748D-03 -0.708456D-02 -0.345010D-03
     25  0.940981D-02 -0.427328D-03 -0.220013D-03 -0.106672D-02  0.493477D-03
     26  0.100411D-01  0.430163D-03  0.190618D-03 -0.108518D-02  0.311211D-03
     27  0.299106D-02  0.110927D-02 -0.581192D-03 -0.723617D-03  0.828332D-03
               11            12            13            14            15 
     11  0.244278D+00
     12  0.852954D-01  0.881197D-01
     13 -0.135761D-01  0.702605D-02  0.115481D+00
     14 -0.192290D-01  0.943295D-02 -0.114913D+00  0.247100D+00
     15 -0.100854D-01  0.404747D-02  0.463449D-01 -0.832491D-01  0.868794D-01
     16 -0.369941D-03 -0.130859D-02 -0.426548D-03  0.149414D-03  0.137498D-02
     17  0.152842D-02 -0.255083D-02 -0.468608D-03  0.218516D-02 -0.131080D-02
     18 -0.101057D-02 -0.100888D-01  0.306708D-03  0.151838D-03  0.421916D-02
     19  0.592103D-04 -0.283352D-03  0.138870D-02 -0.605687D-03  0.205616D-04
     20  0.167747D-03  0.133136D-02 -0.701523D-04  0.118215D-02 -0.624076D-03
     21 -0.612695D-03  0.866076D-03  0.379705D-03 -0.207547D-03 -0.733528D-02
     22  0.229982D-03  0.937130D-03  0.489698D-03 -0.327992D-03  0.279162D-03
     23  0.105757D-03 -0.124997D-04 -0.820506D-03  0.102297D-03 -0.163736D-03
     24 -0.451840D-03  0.100446D-02 -0.219849D-03  0.439847D-03  0.152479D-02
     25  0.308644D-03  0.828933D-03 -0.263242D-03 -0.880364D-04 -0.160198D-03
     26 -0.898272D-04  0.490433D-03  0.447736D-03 -0.151943D-03  0.834788D-04
     27  0.310693D-03 -0.186942D-03 -0.113260D-03  0.100526D-03 -0.272169D-03
               16            17            18            19            20 
     16  0.598135D+00
     17  0.104153D+00  0.286541D+00
     18 -0.116896D+00  0.114163D+00  0.168322D+00
     19  0.107093D-01 -0.208502D-01  0.354950D-02  0.115328D+00
     20  0.180410D-02 -0.391032D-01 -0.651735D-03 -0.993126D-01  0.236571D+00
     21  0.539632D-02 -0.182952D-01  0.705228D-02  0.470929D-01 -0.727381D-01
     22 -0.176155D-01 -0.814363D-02  0.149628D-02 -0.137121D-01  0.144344D-02
     23 -0.378855D-01 -0.705671D-02  0.718175D-02  0.252253D-01  0.152292D-02
     24 -0.170595D-01 -0.348831D-02  0.561749D-02 -0.120364D-01  0.698669D-03
     25 -0.469858D+00 -0.313211D-01  0.135845D+00  0.191254D-02  0.110453D-02
     26  0.152973D-01 -0.337764D-01 -0.241694D-01 -0.333994D-03  0.538408D-03
     27  0.164354D+00 -0.912389D-02 -0.643211D-01  0.788200D-03 -0.358179D-03
               21            22            23            24            25 
     21  0.916335D-01
     22  0.596458D-02  0.311979D+00
     23 -0.933792D-02  0.397494D-02  0.612814D-01
     24  0.531319D-02 -0.921686D-01  0.439040D-02  0.920041D-01
     25  0.662246D-03  0.803780D-03 -0.442400D-02 -0.226210D-02  0.485798D+00
     26  0.117332D-02 -0.260442D-02 -0.528314D-02 -0.274214D-02  0.291834D-01
     27 -0.158820D-03 -0.155630D-02 -0.191164D-02 -0.340817D-03 -0.142760D+00
               26            27 
     26  0.444916D-01
     27  0.158752D-01  0.612141D-01
 Force constants in internal coordinates: 
                1             2             3             4             5 
      1  0.291019D+00
      2  0.547656D-02  0.340500D+00
      3  0.341026D-02  0.188877D-02  0.345657D+00
      4  0.431268D-02  0.196848D-02  0.157925D-02  0.348408D+00
      5  0.210960D-01  0.280688D-02  0.676831D-03  0.121685D-02  0.373365D+00
      6  0.652540D-02  0.676853D-03  0.749742D-03 -0.761029D-03  0.176717D-01
      7  0.570657D-02 -0.949219D-03  0.608722D-03  0.524961D-03  0.114269D-01
      8  0.104401D-02 -0.382468D-03 -0.574593D-03  0.220229D-04 -0.123129D-02
      9  0.302655D-01 -0.318645D-02 -0.872893D-02 -0.843794D-02 -0.306694D-02
     10  0.239554D-01 -0.876577D-02 -0.993104D-03 -0.786326D-02  0.124781D-01
     11  0.297214D-01 -0.891442D-02 -0.855374D-02 -0.304863D-02 -0.317127D-02
     12  0.293510D-01 -0.795154D-03  0.998107D-02 -0.496379D-02 -0.250240D-02
     13  0.347662D-01 -0.270760D-03  0.141753D-03  0.545177D-02 -0.332773D-01
     14  0.338574D-01  0.544220D-02 -0.922611D-04 -0.548341D-03 -0.330257D-01
     15 -0.705777D-04  0.241028D-02 -0.108776D-02 -0.329049D-03  0.500471D-01
     16 -0.121155D-02  0.146059D-01  0.446942D-03 -0.130313D-01 -0.168758D-02
     17  0.650495D-03 -0.154585D-01  0.137141D-01 -0.996367D-03  0.135636D-02
     18  0.256410D-03 -0.196257D-03  0.185833D-03 -0.841441D-04 -0.977649D-03
     19 -0.327814D-02  0.141023D-02 -0.542561D-03 -0.830933D-03 -0.472638D-01
     20  0.184982D-02  0.977377D-03  0.271634D-03 -0.103365D-02  0.492164D-01
     21  0.603378D-03 -0.110689D-02  0.946821D-03 -0.698672D-03  0.182392D-02
                6             7             8             9            10 
      6  0.324364D+00
      7  0.346684D-02  0.345495D+00
      8 -0.125803D-04 -0.176442D-02  0.530232D+00
      9 -0.124212D-02  0.443743D-02  0.215020D-02  0.228208D+00
     10  0.146130D-02  0.702321D-03 -0.145376D-02  0.332729D-01  0.217776D+00
     11  0.497882D-02 -0.984746D-03  0.133449D-03  0.305583D-01  0.316042D-01
     12 -0.442454D-02 -0.606590D-02 -0.654336D-02 -0.126183D-01  0.428899D-01
     13  0.284465D-02 -0.106971D-01  0.159305D-02 -0.731417D-02 -0.592938D-02
     14 -0.118413D-01 -0.154901D-02 -0.336687D-02  0.275119D-01 -0.572366D-02
     15  0.289607D-03  0.336468D-02  0.186168D-01  0.387444D-02 -0.894342D-03
     16  0.264914D-03  0.624687D-04 -0.197670D-03 -0.597262D-01 -0.136842D-02
     17  0.971031D-04 -0.437811D-03 -0.456453D-03  0.572137D-01 -0.572349D-01
     18  0.587460D-03 -0.167701D-03 -0.583296D-03 -0.413808D-02 -0.105011D-02
     19  0.840185D-02  0.132744D-01  0.380684D-02  0.114734D-02 -0.126770D-02
     20 -0.136151D-01 -0.372618D-02  0.741052D-02 -0.137642D-02 -0.331585D-03
     21 -0.109871D-02  0.181388D-03 -0.123676D-02 -0.342280D-03 -0.143952D-02
               11            12            13            14            15 
     11  0.223075D+00
     12 -0.184246D-01  0.379056D+00
     13  0.283228D-01  0.712506D-01  0.258014D+00
     14 -0.653822D-02  0.607989D-01  0.410283D-01  0.250163D+00
     15  0.597287D-03 -0.159327D-01  0.386296D-02 -0.138327D-01  0.191536D+00
     16  0.585646D-01 -0.417636D-02 -0.425615D-03  0.277746D-03 -0.207699D-02
     17  0.627736D-02  0.219238D-03  0.896641D-03  0.453050D-03  0.733252D-03
     18  0.911192D-02 -0.314391D-03  0.443159D-03 -0.326496D-03 -0.907166D-03
     19  0.185106D-02  0.736822D-01  0.209899D-01 -0.540222D-01  0.185576D-02
     20  0.714379D-04 -0.747161D-01  0.509204D-01 -0.220681D-01  0.212665D-01
     21 -0.644072D-03 -0.381836D-02  0.297295D-02 -0.214381D-02  0.122432D-02
               16            17            18            19            20 
     16  0.178052D+00
     17 -0.847742D-01  0.183773D+00
     18  0.750345D-02  0.121004D-01  0.273643D-01
     19  0.346622D-04  0.396227D-02  0.630533D-02  0.227872D+00
     20  0.281212D-03  0.250085D-02  0.661759D-02 -0.873736D-01  0.230609D+00
     21  0.124920D-02  0.926171D-03 -0.927630D-04 -0.353580D-02 -0.101105D-03
               21 
     21  0.108372D-01
 Leave Link  716 at Thu Aug  5 16:41:09 2021, MaxMem=  2684354560 cpu:         0.4
 (Enter /soft/gaussian/09-e.01/g09/l103.exe)

 GradGradGradGradGradGradGradGradGradGradGradGradGradGradGradGradGradGrad
 Berny optimization.
 Search for a local minimum.
 Step number   1 out of a maximum of    2
 All quantities printed in internal units (Hartrees-Bohrs-Radians)
 Second derivative matrix not updated -- analytic derivatives used.
 ITU=  0
     Eigenvalues ---    0.01046   0.02319   0.06215   0.09231   0.11766
     Eigenvalues ---    0.14478   0.17983   0.21439   0.23248   0.26806
     Eigenvalues ---    0.29085   0.32246   0.32568   0.34030   0.34722
     Eigenvalues ---    0.35528   0.35758   0.36903   0.40881   0.50861
     Eigenvalues ---    0.53425
 Angle between quadratic step and forces=  67.17 degrees.
 Linear search not attempted -- first point.
 Variable       Old X    -DE/DX   Delta X   Delta X   Delta X     New X
                                 (Linear)    (Quad)   (Total)
    R1        2.87886   0.00004   0.00000   0.00013   0.00013   2.87900
    R2        2.07316   0.00001   0.00000   0.00001   0.00001   2.07317
    R3        2.07010  -0.00001   0.00000  -0.00005  -0.00005   2.07005
    R4        2.06752   0.00001   0.00000   0.00004   0.00004   2.06756
    R5        2.67360  -0.00015   0.00000  -0.00031  -0.00031   2.67329
    R6        2.08159  -0.00001   0.00000  -0.00002  -0.00002   2.08157
    R7        2.06702  -0.00000   0.00000  -0.00000  -0.00000   2.06702
    R8        1.82255  -0.00003   0.00000  -0.00004  -0.00004   1.82251
    A2        1.93689   0.00002   0.00000  -0.00003  -0.00003   1.93685
    A3        1.93606  -0.00001   0.00000   0.00016   0.00016   1.93622
    A4        1.92510   0.00001   0.00000  -0.00013  -0.00013   1.92497
    A5        1.96798   0.00003   0.00000  -0.00010  -0.00010   1.96788
    A6        1.92116   0.00002   0.00000   0.00008   0.00008   1.92124
    A7        1.92181   0.00007   0.00000   0.00024   0.00024   1.92205
    A8        1.87753  -0.00008   0.00000  -0.00030  -0.00030   1.87723
    D3        2.08819   0.00003   0.00000   0.00062   0.00062   2.08881
    D4        4.19087   0.00003   0.00000   0.00068   0.00068   4.19155
    D5        1.10654  -0.00004   0.00000  -0.00186  -0.00186   1.10468
    D6        4.10743   0.00006   0.00000   0.00023   0.00023   4.10766
    D7        2.05063  -0.00007   0.00000  -0.00012  -0.00012   2.05051
    D8        5.20791  -0.00003   0.00000  -0.00243  -0.00243   5.20548
         Item               Value     Threshold  Converged?
 Maximum Force            0.000155     0.000450     YES
 RMS     Force            0.000050     0.000300     YES
 Maximum Displacement     0.002432     0.001800     NO 
 RMS     Displacement     0.000710     0.001200     YES
 Predicted change in Energy=-1.452269D-07
 GradGradGradGradGradGradGradGradGradGradGradGradGradGradGradGradGradGrad

 Leave Link  103 at Thu Aug  5 16:41:09 2021, MaxMem=  2684354560 cpu:         0.1
 (Enter /soft/gaussian/09-e.01/g09/l9999.exe)
 1\1\GINC-B460\Freq\RwB97XD\6-31G(d)\C2H6O1\KMOORE\05-Aug-2021\1\\#P Ge
 om=AllCheck Guess=TCheck SCRF=Check GenChk RwB97XD/6-31G(d) Freq\\comm
 ent:\\0,1\C\C,1,R1\H,1,R2,2,A2\H,1,R3,2,A3,3,D3,0\H,1,R4,2,A4,3,D4,0\O
 ,2,R5,1,A5,3,D5,0\H,2,R6,1,A6,6,D6,0\H,2,R7,1,A7,6,D7,0\H,6,R8,2,A8,1,
 D8,0\\R1=1.52342955\R2=1.09706873\R3=1.09544993\R4=1.09408432\R5=1.414
 8057\R6=1.10153259\R7=1.09381935\R8=0.96445449\A2=110.9753612\A3=110.9
 2809995\A4=110.3003223\A5=112.75712471\A6=110.07434568\A7=110.11138044
 \A8=107.5747357\D3=119.64429868\D4=240.11934623\D5=63.39979203\D6=235.
 33839517\D7=117.49248607\D8=298.39145915\\Version=ES64L-G09RevE.01\Sta
 te=1-A\HF=-154.9852764\RMSD=1.839e-09\RMSF=3.331e-05\ZeroPoint=0.08132
 84\Thermal=0.0855291\Dipole=0.321726,-0.4219807,-0.4222219\DipoleDeriv
 =0.0949952,-0.0011204,-0.0233859,-0.0178283,0.0485285,0.0092868,-0.043
 4089,-0.0407139,-0.1288805,0.421355,0.1571727,0.1303043,0.1347984,0.70
 12229,0.1172281,0.1322727,0.1504439,0.5500301,-0.1555942,-0.0051931,0.
 0920811,-0.006607,0.0665264,0.0129899,0.0387253,0.0015237,-0.0011717,0
 .0239792,-0.0848941,-0.0431846,-0.0870052,-0.0788998,-0.0777332,-0.032
 3125,-0.052603,0.0077949,0.0264911,0.0754915,-0.0283352,0.0830627,-0.0
 624052,0.0829553,-0.0196127,0.0448033,0.0083713,-0.3899535,-0.2172255,
 -0.2245883,-0.1895708,-0.785614,-0.1425355,-0.210943,-0.1269219,-0.671
 5946,-0.0290955,0.0968276,-0.0666591,0.0452817,-0.2025385,0.0654223,-0
 .0579692,0.0523997,-0.0621385,-0.1362377,-0.0259318,0.0741791,-0.00315
 59,0.0288873,-0.0236982,0.0642639,-0.0103013,-0.0214751,0.1440603,0.00
 48732,0.0895887,0.0410243,0.2842924,-0.0439155,0.1289843,-0.0186306,0.
 319064\Polar=26.7918837,1.3384482,25.7450057,0.0302202,0.8090787,25.73
 5354\PG=C01 [X(C2H6O1)]\NImag=0\\0.58465701,0.00008650,0.59951520,0.00
 117319,-0.00128820,0.49362501,-0.08802656,0.00138478,0.00470248,0.6373
 8054,0.00348531,-0.08290449,0.01106286,-0.03017329,0.54740382,0.010419
 05,0.01905677,-0.20782784,-0.03497587,-0.03097702,0.50327047,-0.282425
 15,0.00072499,0.08489289,0.00013856,-0.00129676,-0.00180179,0.30469676
 ,0.00169368,-0.05090638,0.00043923,-0.00157526,-0.00100912,-0.00028563
 ,-0.00046781,0.04826933,0.08508039,-0.00034684,-0.08120986,0.03684507,
 0.00058874,-0.01283083,-0.09492383,-0.00022671,0.08889681,-0.10727505,
 -0.10192049,-0.04440567,-0.00138102,0.00109370,0.00107391,-0.01346566,
 -0.02577015,-0.01225644,0.11171393,-0.10172030,-0.22786648,-0.07684865
 ,0.00142684,0.00007174,0.00227861,0.00138260,0.00103375,0.00112444,0.1
 1225904,0.24427790,-0.04378454,-0.07559421,-0.08432338,-0.01680193,-0.
 02918915,-0.00362162,0.00511691,0.01079653,0.00418303,0.04826939,0.085
 29541,0.08811970,-0.11213223,0.10485193,-0.04275307,0.00071623,-0.0013
 3048,0.00040716,-0.01354811,0.02587950,-0.01137833,0.00829430,-0.01357
 608,0.00702605,0.11548120,0.10469672,-0.23152294,0.07560936,-0.0007172
 6,-0.00116160,-0.00113483,-0.00158823,0.00149618,-0.00114307,0.0133944
 1,-0.01922900,0.00943295,-0.11491334,0.24709970,-0.04288743,0.07352489
 ,-0.07966997,-0.01737732,0.03236912,-0.01311522,0.00502623,-0.01054441
 ,0.00372179,0.00737913,-0.01008540,0.00404747,0.04634488,-0.08324907,0
 .08687943,-0.00068009,-0.00783972,-0.00455957,-0.12442512,-0.07625694,
 -0.03041088,0.00261116,0.00094827,-0.00089096,0.00154989,-0.00036994,-
 0.00130859,-0.00042655,0.00014941,0.00137498,0.59813518,-0.01012075,-0
 .01088114,-0.01105318,-0.03513620,-0.19952403,-0.06960349,0.00165855,0
 .00008684,0.00126275,0.00022893,0.00152842,-0.00255083,-0.00046861,0.0
 0218516,-0.00131080,0.10415299,0.28654106,-0.02203317,-0.04314195,-0.0
 1650771,-0.00226515,-0.05275009,-0.09770195,0.00025177,0.00022722,0.00
 340824,-0.00025512,-0.00101057,-0.01008880,0.00030671,0.00015184,0.004
 21916,-0.11689567,0.11416295,0.16832243,0.00142974,-0.00005336,0.00212
 619,-0.11779332,0.09650940,-0.04067376,0.00080388,-0.00063803,-0.00058
 378,-0.00006683,0.00005921,-0.00028335,0.00138870,-0.00060569,0.000020
 56,0.01070930,-0.02085018,0.00354950,0.11532810,0.00175229,0.00222605,
 0.00046846,0.09329754,-0.20293152,0.07189572,-0.00027597,-0.00017391,-
 0.00002211,0.00025684,0.00016775,0.00133136,-0.00007015,0.00118215,-0.
 00062408,0.00180410,-0.03910323,-0.00065173,-0.09931262,0.23657138,-0.
 01801169,0.02849129,-0.01309662,-0.04194181,0.07156766,-0.08591334,0.0
 0074632,-0.00004080,0.00163901,-0.00028851,-0.00061269,0.00086608,0.00
 037971,-0.00020755,-0.00733528,0.00539632,-0.01829519,0.00705228,0.047
 09286,-0.07273811,0.09163351,0.00247080,0.00093982,-0.00067922,-0.2861
 6875,0.00433804,0.08655236,0.00161588,0.00014981,-0.00082540,0.0001369
 5,0.00022998,0.00093713,0.00048970,-0.00032799,0.00027916,-0.01761552,
 -0.00814363,0.00149628,-0.01371211,0.00144344,0.00596458,0.31197926,-0
 .00037815,0.00113742,0.00127690,0.01472895,-0.05282264,-0.00127124,-0.
 00056753,0.00101271,-0.00015201,0.00014651,0.00010576,-0.00001250,-0.0
 0082051,0.00010230,-0.00016374,-0.03788547,-0.00705671,0.00718175,0.02
 522527,0.00152292,-0.00933792,0.00397494,0.06128140,0.03312045,-0.0009
 2899,-0.01278795,0.09138883,0.00186661,-0.08525072,-0.00041777,0.00021
 575,-0.00708456,-0.00034501,-0.00045184,0.00100446,-0.00021985,0.00043
 985,0.00152479,-0.01705953,-0.00348831,0.00561749,-0.01203642,0.000698
 67,0.00531319,-0.09216860,0.00439040,0.09200412,0.00198152,0.00182555,
 -0.00049723,-0.02044055,0.00363101,0.00940981,-0.00042733,-0.00022001,
 -0.00106672,0.00049348,0.00030864,0.00082893,-0.00026324,-0.00008804,-
 0.00016020,-0.46985825,-0.03132112,0.13584485,0.00191254,0.00110453,0.
 00066225,0.00080378,-0.00442400,-0.00226210,0.48579804,0.00050469,0.00
 120278,0.00033322,-0.04323612,-0.00712215,0.01004110,0.00043016,0.0001
 9062,-0.00108518,0.00031121,-0.00008983,0.00049043,0.00044774,-0.00015
 194,0.00008348,0.01529729,-0.03377637,-0.02416941,-0.00033399,0.000538
 41,0.00117332,-0.00260442,-0.00528314,-0.00274214,0.02918344,0.0444916
 3,-0.00307625,0.00022723,0.00179832,-0.01957431,-0.00453873,0.00299106
 ,0.00110927,-0.00058119,-0.00072362,0.00082833,0.00031069,-0.00018694,
 -0.00011326,0.00010053,-0.00027217,0.16435390,-0.00912389,-0.06432113,
 0.00078820,-0.00035818,-0.00015882,-0.00155630,-0.00191164,-0.00034082
 ,-0.14275959,0.01587518,0.06121412\\-0.00000750,0.00005383,0.00003021,
 -0.00004384,-0.00005452,-0.00003325,-0.00000269,-0.00003329,0.00000897
 ,0.00001003,-0.00001468,-0.00000957,-0.00001248,-0.00001447,0.00000634
 ,0.00006325,0.00007947,0.00003557,-0.00001919,-0.00002529,-0.00000802,
 -0.00001313,-0.00003737,-0.00003240,0.00002555,0.00004632,0.00000216\\
 \@


 The impersonal hand of government can
 never replace the helping hand of a neighbor.
                        -- Hubert H. Humphrey
 Job cpu time:       0 days  0 hours  1 minutes 35.5 seconds.
 File lengths (MBytes):  RWF=      7 Int=      0 D2E=      0 Chk=      1 Scr=      1
 Normal termination of Gaussian 09 at Thu Aug  5 16:41:09 2021.
