 Entering Gaussian System, Link 0=g09
 Input=run.inp
 Output=run.out
 Initial command:
 /soft/gaussian/09-e.01/g09/l1.exe "/scratch/kmoore/Gau-10767.inp" -scrdir="/scratch/kmoore/"
 Entering Link 1 = /soft/gaussian/09-e.01/g09/l1.exe PID=     10768.
  
 Copyright (c) 1988,1990,1992,1993,1995,1998,2003,2009,2015,
            Gaussian, Inc.  All Rights Reserved.
  
 This is part of the Gaussian(R) 09 program.  It is based on
 the Gaussian(R) 03 system (copyright 2003, Gaussian, Inc.),
 the Gaussian(R) 98 system (copyright 1998, Gaussian, Inc.),
 the Gaussian(R) 94 system (copyright 1995, Gaussian, Inc.),
 the Gaussian 92(TM) system (copyright 1992, Gaussian, Inc.),
 the Gaussian 90(TM) system (copyright 1990, Gaussian, Inc.),
 the Gaussian 88(TM) system (copyright 1988, Gaussian, Inc.),
 the Gaussian 86(TM) system (copyright 1986, Carnegie Mellon
 University), and the Gaussian 82(TM) system (copyright 1983,
 Carnegie Mellon University). Gaussian is a federally registered
 trademark of Gaussian, Inc.
  
 This software contains proprietary and confidential information,
 including trade secrets, belonging to Gaussian, Inc.
  
 This software is provided under written license and may be
 used, copied, transmitted, or stored only in accord with that
 written license.
  
 The following legend is applicable only to US Government
 contracts under FAR:
  
                    RESTRICTED RIGHTS LEGEND
  
 Use, reproduction and disclosure by the US Government is
 subject to restrictions as set forth in subparagraphs (a)
 and (c) of the Commercial Computer Software - Restricted
 Rights clause in FAR 52.227-19.
  
 Gaussian, Inc.
 340 Quinnipiac St., Bldg. 40, Wallingford CT 06492
  
  
 ---------------------------------------------------------------
 Warning -- This program may not be used in any manner that
 competes with the business of Gaussian, Inc. or will provide
 assistance to any competitor of Gaussian, Inc.  The licensee
 of this program is prohibited from giving any competitor of
 Gaussian, Inc. access to this program.  By using this program,
 the user acknowledges that Gaussian, Inc. is engaged in the
 business of creating and licensing software in the field of
 computational chemistry and represents and warrants to the
 licensee that it is not a competitor of Gaussian, Inc. and that
 it will not use this program in any manner prohibited above.
 ---------------------------------------------------------------
  

 Cite this work as:
 Gaussian 09, Revision E.01,
 M. J. Frisch, G. W. Trucks, H. B. Schlegel, G. E. Scuseria, 
 M. A. Robb, J. R. Cheeseman, G. Scalmani, V. Barone, B. Mennucci, 
 G. A. Petersson, H. Nakatsuji, M. Caricato, X. Li, H. P. Hratchian, 
 A. F. Izmaylov, J. Bloino, G. Zheng, J. L. Sonnenberg, M. Hada, 
 M. Ehara, K. Toyota, R. Fukuda, J. Hasegawa, M. Ishida, T. Nakajima, 
 Y. Honda, O. Kitao, H. Nakai, T. Vreven, J. A. Montgomery, Jr., 
 J. E. Peralta, F. Ogliaro, M. Bearpark, J. J. Heyd, E. Brothers, 
 K. N. Kudin, V. N. Staroverov, T. Keith, R. Kobayashi, J. Normand, 
 K. Raghavachari, A. Rendell, J. C. Burant, S. S. Iyengar, J. Tomasi, 
 M. Cossi, N. Rega, J. M. Millam, M. Klene, J. E. Knox, J. B. Cross, 
 V. Bakken, C. Adamo, J. Jaramillo, R. Gomperts, R. E. Stratmann, 
 O. Yazyev, A. J. Austin, R. Cammi, C. Pomelli, J. W. Ochterski, 
 R. L. Martin, K. Morokuma, V. G. Zakrzewski, G. A. Voth, 
 P. Salvador, J. J. Dannenberg, S. Dapprich, A. D. Daniels, 
 O. Farkas, J. B. Foresman, J. V. Ortiz, J. Cioslowski, 
 and D. J. Fox, Gaussian, Inc., Wallingford CT, 2013.
 
 ******************************************
 Gaussian 09:  ES64L-G09RevE.01 30-Nov-2015
                16-Aug-2021 
 ******************************************
 %mem=1GB
 %NProcShared=10
 Will use up to   10 processors via shared memory.
 ----------------------------------------------------------------------
 #P m062x/cc-pvdz # SCF=(xqc) # Freq=() # IOp(7/33=1) # int=ultrafine #
  fchk NoSym guess=mix
 ----------------------------------------------------------------------
 1/10=4,30=1,38=1/1,3;
 2/12=2,15=1,17=6,18=5,40=1/2;
 3/5=16,11=2,16=1,25=1,30=1,71=2,74=-55,75=-5,140=1/1,2,3;
 4/13=-1/1;
 5/5=2,8=3,13=1,38=5,98=1/2,8;
 8/6=4,10=90,11=11/1;
 11/6=1,8=1,9=11,15=111,16=1,31=1/1,2,10;
 10/6=1,31=1/2;
 6/7=2,8=2,9=2,10=2,18=1,28=1/1;
 7/8=1,10=1,25=1,30=1,33=1/1,2,3,16;
 1/10=4,30=1/3;
 99//99;
 Leave Link    1 at Mon Aug 16 22:45:26 2021, MaxMem=   134217728 cpu:         0.4
 (Enter /soft/gaussian/09-e.01/g09/l101.exe)
 --------
 comment:
 --------
 Symbolic Z-matrix:
 Charge =  0 Multiplicity = 1
 O                     1.15284  -0.24273  -0.01602 
 C                     0.03718   0.43988  -0.00125 
 C                    -1.27164  -0.22368  -0.03313 
 H                     0.03061   1.42346  -0.53007 
 H                    -0.11441   0.77472   1.09893 
 H                    -1.33106  -1.29572   0.16498 
 H                    -2.18293   0.37564  -0.07035 
 
 NAtoms=      7 NQM=        7 NQMF=       0 NMMI=      0 NMMIF=      0
                NMic=       0 NMicF=      0.
                    Isotopes and Nuclear Properties:
 (Nuclear quadrupole moments (NQMom) in fm**2, nuclear magnetic moments (NMagM)
  in nuclear magnetons)

  Atom         1           2           3           4           5           6           7
 IAtWgt=          16          12          12           1           1           1           1
 AtmWgt=  15.9949146  12.0000000  12.0000000   1.0078250   1.0078250   1.0078250   1.0078250
 NucSpn=           0           0           0           1           1           1           1
 AtZEff=   0.0000000   0.0000000   0.0000000   0.0000000   0.0000000   0.0000000   0.0000000
 NQMom=    0.0000000   0.0000000   0.0000000   0.0000000   0.0000000   0.0000000   0.0000000
 NMagM=    0.0000000   0.0000000   0.0000000   2.7928460   2.7928460   2.7928460   2.7928460
 AtZNuc=   8.0000000   6.0000000   6.0000000   1.0000000   1.0000000   1.0000000   1.0000000
 Leave Link  101 at Mon Aug 16 22:45:26 2021, MaxMem=   134217728 cpu:         0.5
 (Enter /soft/gaussian/09-e.01/g09/l103.exe)

 GradGradGradGradGradGradGradGradGradGradGradGradGradGradGradGradGradGrad
 Berny optimization.
 Initialization pass.
 Trust Radius=3.00D-01 FncErr=1.00D-07 GrdErr=1.00D-07
 Number of steps in this run=      2 maximum allowed number of steps=      2.
 GradGradGradGradGradGradGradGradGradGradGradGradGradGradGradGradGradGrad

 Leave Link  103 at Mon Aug 16 22:45:26 2021, MaxMem=   134217728 cpu:         0.1
 (Enter /soft/gaussian/09-e.01/g09/l202.exe)
                          Input orientation:                          
 ---------------------------------------------------------------------
 Center     Atomic      Atomic             Coordinates (Angstroms)
 Number     Number       Type             X           Y           Z
 ---------------------------------------------------------------------
      1          8           0        1.152835   -0.242734   -0.016015
      2          6           0        0.037179    0.439881   -0.001252
      3          6           0       -1.271643   -0.223681   -0.033126
      4          1           0        0.030613    1.423460   -0.530067
      5          1           0       -0.114412    0.774722    1.098930
      6          1           0       -1.331055   -1.295716    0.164983
      7          1           0       -2.182930    0.375644   -0.070348
 ---------------------------------------------------------------------
                    Distance matrix (angstroms):
                    1          2          3          4          5
     1  O    0.000000
     2  C    1.308002   0.000000
     3  C    2.424613   1.467769   0.000000
     4  H    2.073604   1.116744   2.157752   0.000000
     5  H    1.970846   1.159956   1.901984   1.759410   0.000000
     6  H    2.703931   2.216302   1.091804   3.119480   2.576663
     7  H    3.393033   2.222113   1.091339   2.491793   2.409407
                    6          7
     6  H    0.000000
     7  H    1.890639   0.000000
 Symmetry turned off by external request.
 Stoichiometry    C2H4O
 Framework group  C1[X(C2H4O)]
 Deg. of freedom    15
 Full point group                 C1      NOp   1
 Rotational constants (GHZ):     51.0692815     10.3494782      9.0850816
 Leave Link  202 at Mon Aug 16 22:45:26 2021, MaxMem=   134217728 cpu:         0.1
 (Enter /soft/gaussian/09-e.01/g09/l301.exe)
 Standard basis: CC-pVDZ (5D, 7F)
 Ernie: Thresh=  0.10000D-02 Tol=  0.10000D-05 Strict=F.
 Ernie:  6 primitive shells out of 86 were deleted.
    62 basis functions,   127 primitive gaussians,    65 cartesian basis functions
    12 alpha electrons       12 beta electrons
       nuclear repulsion energy        68.6652053033 Hartrees.
 IExCor= 4336 DFT=T Ex+Corr=M062X ExCW=0 ScaHFX=  0.540000
 ScaDFX=  1.000000  1.000000  1.000000  1.000000 ScalE2=  1.000000  1.000000
 IRadAn=      5 IRanWt=     -1 IRanGd=            0 ICorTp=0 IEmpDi=  4
 NAtoms=    7 NActive=    7 NUniq=    7 SFac= 1.00D+00 NAtFMM=   60 NAOKFM=F Big=F
 Integral buffers will be    131072 words long.
 Raffenetti 2 integral format.
 Two-electron integral symmetry is turned off.
 Leave Link  301 at Mon Aug 16 22:45:26 2021, MaxMem=   134217728 cpu:         0.4
 (Enter /soft/gaussian/09-e.01/g09/l302.exe)
 NPDir=0 NMtPBC=     1 NCelOv=     1 NCel=       1 NClECP=     1 NCelD=      1
         NCelK=      1 NCelE2=     1 NClLst=     1 CellRange=     0.0.
 One-electron integrals computed using PRISM.
 NBasis=    62 RedAO= T EigKep=  5.25D-03  NBF=    62
 NBsUse=    62 1.00D-06 EigRej= -1.00D+00 NBFU=    62
 Precomputing XC quadrature grid using
 IXCGrd= 4 IRadAn=           5 IRanWt=          -1 IRanGd=           0 AccXCQ= 0.00D+00.
 Generated NRdTot=       0 NPtTot=           0 NUsed=           0 NTot=          32
 NSgBfM=    65    65    65    65    65 MxSgAt=     7 MxSgA2=     7.
 Leave Link  302 at Mon Aug 16 22:45:26 2021, MaxMem=   134217728 cpu:         1.5
 (Enter /soft/gaussian/09-e.01/g09/l303.exe)
 DipDrv:  MaxL=1.
 Leave Link  303 at Mon Aug 16 22:45:26 2021, MaxMem=   134217728 cpu:         0.2
 (Enter /soft/gaussian/09-e.01/g09/l401.exe)
 ExpMin= 1.22D-01 ExpMax= 1.17D+04 ExpMxC= 4.01D+02 IAcc=3 IRadAn=         5 AccDes= 0.00D+00
 Harris functional with IExCor= 1009 and IRadAn=       5 diagonalized for initial guess.
 HarFok:  IExCor= 1009 AccDes= 0.00D+00 IRadAn=         5 IDoV= 1 UseB2=F ITyADJ=14
 ICtDFT=  3500011 ScaDFX=  1.000000  1.000000  1.000000  1.000000
 FoFCou: FMM=F IPFlag=           0 FMFlag=      100000 FMFlg1=           0
         NFxFlg=           0 DoJE=T BraDBF=F KetDBF=T FulRan=T
         wScrn=  0.000000 ICntrl=     500 IOpCl=  0 I1Cent=   200000004 NGrid=           0
         NMat0=    1 NMatS0=      1 NMatT0=    0 NMatD0=    1 NMtDS0=    0 NMtDT0=    0
 Symmetry not used in FoFCou.
 Harris En= -153.599068082233    
 JPrj=0 DoOrth=F DoCkMO=T.
 Mixing orbitals, IMix= 1 IMixAn=  0 NRI=1 NE=   12 Coef=  7.07106781D-01  7.07106781D-01
 Leave Link  401 at Mon Aug 16 22:45:26 2021, MaxMem=   134217728 cpu:         2.4
 (Enter /soft/gaussian/09-e.01/g09/l502.exe)
 Closed shell SCF:
 Using DIIS extrapolation, IDIIS=  1040.
 Two-electron integral symmetry not used.
 Keep R1 ints in memory in canonical form, NReq=2816696.
 IVT=       19671 IEndB=       19671 NGot=   134217728 MDV=   132289977
 LenX=   132289977 LenY=   132285311
 Requested convergence on RMS density matrix=1.00D-08 within  64 cycles.
 Requested convergence on MAX density matrix=1.00D-06.
 Requested convergence on             energy=1.00D-06.
 No special actions if energy rises.
 FoFCou: FMM=F IPFlag=           0 FMFlag=           0 FMFlg1=           0
         NFxFlg=           0 DoJE=F BraDBF=F KetDBF=F FulRan=T
         wScrn=  0.000000 ICntrl=     600 IOpCl=  0 I1Cent=           0 NGrid=           0
         NMat0=    1 NMatS0=   1953 NMatT0=    0 NMatD0=    1 NMtDS0=    0 NMtDT0=    0
 Symmetry not used in FoFCou.
 Integral accuracy reduced to 1.0D-05 until final iterations.

 Cycle   1  Pass 0  IDiag  1:
 E= -153.408225209597    
 DIIS: error= 2.94D-02 at cycle   1 NSaved=   1.
 NSaved= 1 IEnMin= 1 EnMin= -153.408225209597     IErMin= 1 ErrMin= 2.94D-02
 ErrMax= 2.94D-02  0.00D+00 EMaxC= 1.00D-01 BMatC= 1.05D-01 BMatP= 1.05D-01
 IDIUse=3 WtCom= 7.06D-01 WtEn= 2.94D-01
 Coeff-Com:  0.100D+01
 Coeff-En:   0.100D+01
 Coeff:      0.100D+01
 Gap=    -0.031 Goal=   None    Shift=    0.000
 GapD=   -0.031 DampG=0.250 DampE=0.500 DampFc=0.2500 IDamp=-1.
 Damping current iteration by 2.50D-01
 RMSDP=1.84D-02 MaxDP=3.15D-01              OVMax= 6.92D-01

 Cycle   2  Pass 0  IDiag  1:
 E= -153.417399776887     Delta-E=       -0.009174567290 Rises=F Damp=T
 DIIS: error= 1.64D-02 at cycle   2 NSaved=   2.
 NSaved= 2 IEnMin= 2 EnMin= -153.417399776887     IErMin= 2 ErrMin= 1.64D-02
 ErrMax= 1.64D-02  0.00D+00 EMaxC= 1.00D-01 BMatC= 2.34D-02 BMatP= 1.05D-01
 IDIUse=3 WtCom= 8.36D-01 WtEn= 1.64D-01
 Coeff-Com:  0.204D-01 0.980D+00
 Coeff-En:   0.430D+00 0.570D+00
 Coeff:      0.877D-01 0.912D+00
 Gap=     0.062 Goal=   None    Shift=    0.000
 RMSDP=9.08D-03 MaxDP=1.24D-01 DE=-9.17D-03 OVMax= 9.39D-01

 Cycle   3  Pass 0  IDiag  1:
 E= -153.461589178815     Delta-E=       -0.044189401928 Rises=F Damp=F
 DIIS: error= 2.72D-02 at cycle   3 NSaved=   3.
 NSaved= 3 IEnMin= 3 EnMin= -153.461589178815     IErMin= 2 ErrMin= 1.64D-02
 ErrMax= 2.72D-02  0.00D+00 EMaxC= 1.00D-01 BMatC= 8.46D-02 BMatP= 2.34D-02
 IDIUse=2 WtCom= 0.00D+00 WtEn= 1.00D+00
 Coeff-En:   0.000D+00 0.285D+00 0.715D+00
 Coeff:      0.000D+00 0.285D+00 0.715D+00
 Gap=    -0.047 Goal=   None    Shift=    0.000
 RMSDP=1.92D-02 MaxDP=3.69D-01 DE=-4.42D-02 OVMax= 8.28D-01

 Cycle   4  Pass 0  IDiag  1:
 E= -152.657360260991     Delta-E=        0.804228917824 Rises=F Damp=F
 DIIS: error= 7.79D-02 at cycle   4 NSaved=   4.
 NSaved= 4 IEnMin= 3 EnMin= -153.461589178815     IErMin= 2 ErrMin= 1.64D-02
 ErrMax= 7.79D-02  0.00D+00 EMaxC= 1.00D-01 BMatC= 7.59D-01 BMatP= 2.34D-02
 IDIUse=2 WtCom= 0.00D+00 WtEn= 1.00D+00
 Coeff-En:   0.000D+00 0.000D+00 0.823D+00 0.177D+00
 Coeff:      0.000D+00 0.000D+00 0.823D+00 0.177D+00
 Gap=     0.040 Goal=   None    Shift=    0.000
 RMSDP=1.39D-02 MaxDP=2.49D-01 DE= 8.04D-01 OVMax= 7.42D-01

 Cycle   5  Pass 0  IDiag  1:
 E= -153.587876319420     Delta-E=       -0.930516058429 Rises=F Damp=F
 DIIS: error= 1.68D-02 at cycle   5 NSaved=   5.
 NSaved= 5 IEnMin= 5 EnMin= -153.587876319420     IErMin= 2 ErrMin= 1.64D-02
 ErrMax= 1.68D-02  0.00D+00 EMaxC= 1.00D-01 BMatC= 2.80D-02 BMatP= 2.34D-02
 IDIUse=2 WtCom= 0.00D+00 WtEn= 1.00D+00
 Coeff-En:   0.000D+00 0.000D+00 0.000D+00 0.000D+00 0.100D+01
 Coeff:      0.000D+00 0.000D+00 0.000D+00 0.000D+00 0.100D+01
 Gap=     0.241 Goal=   None    Shift=    0.000
 RMSDP=6.13D-03 MaxDP=8.92D-02 DE=-9.31D-01 OVMax= 2.06D-01

 Cycle   6  Pass 0  IDiag  1:
 E= -153.534241572628     Delta-E=        0.053634746791 Rises=F Damp=F
 DIIS: error= 2.75D-02 at cycle   6 NSaved=   6.
 NSaved= 6 IEnMin= 5 EnMin= -153.587876319420     IErMin= 2 ErrMin= 1.64D-02
 ErrMax= 2.75D-02  0.00D+00 EMaxC= 1.00D-01 BMatC= 8.09D-02 BMatP= 2.34D-02
 IDIUse=2 WtCom= 0.00D+00 WtEn= 1.00D+00
 Coeff-En:   0.000D+00 0.000D+00 0.000D+00 0.000D+00 0.720D+00 0.280D+00
 Coeff:      0.000D+00 0.000D+00 0.000D+00 0.000D+00 0.720D+00 0.280D+00
 Gap=     0.186 Goal=   None    Shift=    0.000
 RMSDP=3.26D-03 MaxDP=5.39D-02 DE= 5.36D-02 OVMax= 1.33D-01

 Cycle   7  Pass 0  IDiag  1:
 E= -153.609427256248     Delta-E=       -0.075185683620 Rises=F Damp=F
 DIIS: error= 6.38D-03 at cycle   7 NSaved=   7.
 NSaved= 7 IEnMin= 7 EnMin= -153.609427256248     IErMin= 7 ErrMin= 6.38D-03
 ErrMax= 6.38D-03  0.00D+00 EMaxC= 1.00D-01 BMatC= 3.38D-03 BMatP= 2.34D-02
 IDIUse=3 WtCom= 9.36D-01 WtEn= 6.38D-02
 Coeff-Com:  0.623D-01-0.816D-01-0.532D-01 0.350D-02 0.160D+00-0.903D-01
 Coeff-Com:  0.999D+00
 Coeff-En:   0.000D+00 0.000D+00 0.000D+00 0.000D+00 0.121D+00 0.000D+00
 Coeff-En:   0.879D+00
 Coeff:      0.583D-01-0.764D-01-0.498D-01 0.328D-02 0.157D+00-0.845D-01
 Coeff:      0.992D+00
 Gap=     0.183 Goal=   None    Shift=    0.000
 RMSDP=1.48D-03 MaxDP=2.82D-02 DE=-7.52D-02 OVMax= 7.41D-02

 Cycle   8  Pass 0  IDiag  1:
 E= -153.612270216712     Delta-E=       -0.002842960464 Rises=F Damp=F
 DIIS: error= 4.33D-03 at cycle   8 NSaved=   8.
 NSaved= 8 IEnMin= 8 EnMin= -153.612270216712     IErMin= 8 ErrMin= 4.33D-03
 ErrMax= 4.33D-03  0.00D+00 EMaxC= 1.00D-01 BMatC= 1.57D-03 BMatP= 3.38D-03
 IDIUse=3 WtCom= 9.57D-01 WtEn= 4.33D-02
 Coeff-Com:  0.949D-02-0.158D-02-0.116D-01-0.915D-02 0.498D-01 0.374D-01
 Coeff-Com:  0.293D+00 0.633D+00
 Coeff-En:   0.000D+00 0.000D+00 0.000D+00 0.000D+00 0.000D+00 0.000D+00
 Coeff-En:   0.282D+00 0.718D+00
 Coeff:      0.908D-02-0.152D-02-0.111D-01-0.875D-02 0.476D-01 0.358D-01
 Coeff:      0.292D+00 0.637D+00
 Gap=     0.183 Goal=   None    Shift=    0.000
 RMSDP=5.21D-04 MaxDP=7.02D-03 DE=-2.84D-03 OVMax= 1.61D-02

 Cycle   9  Pass 0  IDiag  1:
 E= -153.613698293381     Delta-E=       -0.001428076669 Rises=F Damp=F
 DIIS: error= 1.12D-03 at cycle   9 NSaved=   9.
 NSaved= 9 IEnMin= 9 EnMin= -153.613698293381     IErMin= 9 ErrMin= 1.12D-03
 ErrMax= 1.12D-03  0.00D+00 EMaxC= 1.00D-01 BMatC= 1.23D-04 BMatP= 1.57D-03
 IDIUse=3 WtCom= 9.89D-01 WtEn= 1.12D-02
 Coeff-Com:  0.455D-02-0.518D-02 0.202D-02-0.270D-03-0.419D-01-0.119D-02
 Coeff-Com: -0.120D-01-0.134D+00 0.119D+01
 Coeff-En:   0.000D+00 0.000D+00 0.000D+00 0.000D+00 0.000D+00 0.000D+00
 Coeff-En:   0.000D+00 0.000D+00 0.100D+01
 Coeff:      0.450D-02-0.512D-02 0.199D-02-0.267D-03-0.414D-01-0.118D-02
 Coeff:     -0.118D-01-0.133D+00 0.119D+01
 Gap=     0.184 Goal=   None    Shift=    0.000
 RMSDP=3.28D-04 MaxDP=4.06D-03 DE=-1.43D-03 OVMax= 1.23D-02

 Cycle  10  Pass 0  IDiag  1:
 E= -153.613884358404     Delta-E=       -0.000186065023 Rises=F Damp=F
 DIIS: error= 4.47D-04 at cycle  10 NSaved=  10.
 NSaved=10 IEnMin=10 EnMin= -153.613884358404     IErMin=10 ErrMin= 4.47D-04
 ErrMax= 4.47D-04  0.00D+00 EMaxC= 1.00D-01 BMatC= 2.00D-05 BMatP= 1.23D-04
 IDIUse=3 WtCom= 9.96D-01 WtEn= 4.47D-03
 Coeff-Com:  0.825D-02-0.133D-01-0.402D-02 0.283D-02-0.814D-02-0.212D-01
 Coeff-Com:  0.232D-01-0.277D+00 0.103D+00 0.119D+01
 Coeff-En:   0.000D+00 0.000D+00 0.000D+00 0.000D+00 0.000D+00 0.000D+00
 Coeff-En:   0.000D+00 0.000D+00 0.000D+00 0.100D+01
 Coeff:      0.822D-02-0.133D-01-0.401D-02 0.281D-02-0.811D-02-0.211D-01
 Coeff:      0.231D-01-0.275D+00 0.103D+00 0.118D+01
 Gap=     0.185 Goal=   None    Shift=    0.000
 RMSDP=2.19D-04 MaxDP=2.22D-03 DE=-1.86D-04 OVMax= 9.79D-03

 Cycle  11  Pass 0  IDiag  1:
 E= -153.613938129735     Delta-E=       -0.000053771331 Rises=F Damp=F
 DIIS: error= 3.13D-04 at cycle  11 NSaved=  11.
 NSaved=11 IEnMin=11 EnMin= -153.613938129735     IErMin=11 ErrMin= 3.13D-04
 ErrMax= 3.13D-04  0.00D+00 EMaxC= 1.00D-01 BMatC= 7.47D-06 BMatP= 2.00D-05
 IDIUse=3 WtCom= 9.97D-01 WtEn= 3.13D-03
 Coeff-Com:  0.109D-02-0.245D-02-0.173D-03 0.652D-03 0.130D-01-0.211D-02
 Coeff-Com:  0.262D-02-0.130D+00-0.158D+00 0.528D+00 0.748D+00
 Coeff-En:   0.000D+00 0.000D+00 0.000D+00 0.000D+00 0.000D+00 0.000D+00
 Coeff-En:   0.000D+00 0.000D+00 0.000D+00 0.000D+00 0.100D+01
 Coeff:      0.109D-02-0.244D-02-0.172D-03 0.650D-03 0.130D-01-0.211D-02
 Coeff:      0.262D-02-0.130D+00-0.158D+00 0.526D+00 0.749D+00
 Gap=     0.185 Goal=   None    Shift=    0.000
 RMSDP=9.58D-05 MaxDP=1.05D-03 DE=-5.38D-05 OVMax= 4.57D-03

 Cycle  12  Pass 0  IDiag  1:
 E= -153.613955831277     Delta-E=       -0.000017701542 Rises=F Damp=F
 DIIS: error= 9.09D-05 at cycle  12 NSaved=  12.
 NSaved=12 IEnMin=12 EnMin= -153.613955831277     IErMin=12 ErrMin= 9.09D-05
 ErrMax= 9.09D-05  0.00D+00 EMaxC= 1.00D-01 BMatC= 4.35D-07 BMatP= 7.47D-06
 IDIUse=1 WtCom= 1.00D+00 WtEn= 0.00D+00
 Coeff-Com:  0.249D-02-0.356D-02-0.376D-02 0.822D-03 0.201D-02-0.526D-02
 Coeff-Com:  0.317D-01 0.389D-01-0.903D-01-0.281D+00-0.436D+00 0.174D+01
 Coeff:      0.249D-02-0.356D-02-0.376D-02 0.822D-03 0.201D-02-0.526D-02
 Coeff:      0.317D-01 0.389D-01-0.903D-01-0.281D+00-0.436D+00 0.174D+01
 Gap=     0.185 Goal=   None    Shift=    0.000
 RMSDP=1.25D-04 MaxDP=1.52D-03 DE=-1.77D-05 OVMax= 6.44D-03

 Cycle  13  Pass 0  IDiag  1:
 E= -153.613963495855     Delta-E=       -0.000007664578 Rises=F Damp=F
 DIIS: error= 4.87D-05 at cycle  13 NSaved=  13.
 NSaved=13 IEnMin=13 EnMin= -153.613963495855     IErMin=13 ErrMin= 4.87D-05
 ErrMax= 4.87D-05  0.00D+00 EMaxC= 1.00D-01 BMatC= 1.92D-07 BMatP= 4.35D-07
 IDIUse=1 WtCom= 1.00D+00 WtEn= 0.00D+00
 Coeff-Com:  0.452D-03-0.626D-03-0.510D-03 0.171D-03-0.243D-02-0.249D-02
 Coeff-Com:  0.831D-02 0.234D-01 0.582D-01-0.684D-01-0.462D+00 0.378D+00
 Coeff-Com:  0.107D+01
 Coeff:      0.452D-03-0.626D-03-0.510D-03 0.171D-03-0.243D-02-0.249D-02
 Coeff:      0.831D-02 0.234D-01 0.582D-01-0.684D-01-0.462D+00 0.378D+00
 Coeff:      0.107D+01
 Gap=     0.184 Goal=   None    Shift=    0.000
 RMSDP=3.16D-05 MaxDP=3.06D-04 DE=-7.66D-06 OVMax= 1.35D-03

 Cycle  14  Pass 0  IDiag  1:
 E= -153.613964199097     Delta-E=       -0.000000703242 Rises=F Damp=F
 DIIS: error= 1.69D-05 at cycle  14 NSaved=  14.
 NSaved=14 IEnMin=14 EnMin= -153.613964199097     IErMin=14 ErrMin= 1.69D-05
 ErrMax= 1.69D-05  0.00D+00 EMaxC= 1.00D-01 BMatC= 2.97D-08 BMatP= 1.92D-07
 IDIUse=1 WtCom= 1.00D+00 WtEn= 0.00D+00
 Coeff-Com: -0.110D-04-0.101D-05-0.215D-05 0.218D-04-0.405D-03-0.407D-03
 Coeff-Com: -0.281D-03 0.111D-02 0.776D-02 0.133D-01-0.260D-01-0.780D-01
 Coeff-Com:  0.409D-01 0.104D+01
 Coeff:     -0.110D-04-0.101D-05-0.215D-05 0.218D-04-0.405D-03-0.407D-03
 Coeff:     -0.281D-03 0.111D-02 0.776D-02 0.133D-01-0.260D-01-0.780D-01
 Coeff:      0.409D-01 0.104D+01
 Gap=     0.184 Goal=   None    Shift=    0.000
 RMSDP=7.79D-06 MaxDP=8.23D-05 DE=-7.03D-07 OVMax= 3.54D-04

 Initial convergence to 1.0D-05 achieved.  Increase integral accuracy.
 Cycle  15  Pass 1  IDiag  1:
 E= -153.613960414556     Delta-E=        0.000003784542 Rises=F Damp=F
 DIIS: error= 1.28D-05 at cycle   1 NSaved=   1.
 NSaved= 1 IEnMin= 1 EnMin= -153.613960414556     IErMin= 1 ErrMin= 1.28D-05
 ErrMax= 1.28D-05  0.00D+00 EMaxC= 1.00D-01 BMatC= 2.30D-08 BMatP= 2.30D-08
 IDIUse=1 WtCom= 1.00D+00 WtEn= 0.00D+00
 Coeff-Com:  0.100D+01
 Coeff:      0.100D+01
 Gap=     0.184 Goal=   None    Shift=    0.000
 RMSDP=7.79D-06 MaxDP=8.23D-05 DE= 3.78D-06 OVMax= 1.59D-04

 Cycle  16  Pass 1  IDiag  1:
 E= -153.613960410015     Delta-E=        0.000000004541 Rises=F Damp=F
 DIIS: error= 2.11D-05 at cycle   2 NSaved=   2.
 NSaved= 2 IEnMin= 1 EnMin= -153.613960414556     IErMin= 1 ErrMin= 1.28D-05
 ErrMax= 2.11D-05  0.00D+00 EMaxC= 1.00D-01 BMatC= 3.49D-08 BMatP= 2.30D-08
 IDIUse=1 WtCom= 1.00D+00 WtEn= 0.00D+00
 Coeff-Com:  0.574D+00 0.426D+00
 Coeff:      0.574D+00 0.426D+00
 Gap=     0.184 Goal=   None    Shift=    0.000
 RMSDP=3.93D-06 MaxDP=7.07D-05 DE= 4.54D-09 OVMax= 1.74D-04

 Cycle  17  Pass 1  IDiag  1:
 E= -153.613960435062     Delta-E=       -0.000000025047 Rises=F Damp=F
 DIIS: error= 1.02D-05 at cycle   3 NSaved=   3.
 NSaved= 3 IEnMin= 3 EnMin= -153.613960435062     IErMin= 3 ErrMin= 1.02D-05
 ErrMax= 1.02D-05  0.00D+00 EMaxC= 1.00D-01 BMatC= 8.73D-09 BMatP= 2.30D-08
 IDIUse=1 WtCom= 1.00D+00 WtEn= 0.00D+00
 Coeff-Com: -0.515D-01 0.336D+00 0.715D+00
 Coeff:     -0.515D-01 0.336D+00 0.715D+00
 Gap=     0.184 Goal=   None    Shift=    0.000
 RMSDP=1.33D-06 MaxDP=1.93D-05 DE=-2.50D-08 OVMax= 4.69D-05

 Cycle  18  Pass 1  IDiag  1:
 E= -153.613960443019     Delta-E=       -0.000000007957 Rises=F Damp=F
 DIIS: error= 6.97D-07 at cycle   4 NSaved=   4.
 NSaved= 4 IEnMin= 4 EnMin= -153.613960443019     IErMin= 4 ErrMin= 6.97D-07
 ErrMax= 6.97D-07  0.00D+00 EMaxC= 1.00D-01 BMatC= 7.27D-11 BMatP= 8.73D-09
 IDIUse=1 WtCom= 1.00D+00 WtEn= 0.00D+00
 Coeff-Com: -0.244D-01 0.991D-01 0.173D+00 0.752D+00
 Coeff:     -0.244D-01 0.991D-01 0.173D+00 0.752D+00
 Gap=     0.184 Goal=   None    Shift=    0.000
 RMSDP=1.91D-07 MaxDP=2.28D-06 DE=-7.96D-09 OVMax= 4.37D-06

 Cycle  19  Pass 1  IDiag  1:
 E= -153.613960443088     Delta-E=       -0.000000000069 Rises=F Damp=F
 DIIS: error= 4.95D-07 at cycle   5 NSaved=   5.
 NSaved= 5 IEnMin= 5 EnMin= -153.613960443088     IErMin= 5 ErrMin= 4.95D-07
 ErrMax= 4.95D-07  0.00D+00 EMaxC= 1.00D-01 BMatC= 2.83D-11 BMatP= 7.27D-11
 IDIUse=1 WtCom= 1.00D+00 WtEn= 0.00D+00
 Coeff-Com: -0.105D-02-0.257D-02-0.580D-01 0.208D+00 0.854D+00
 Coeff:     -0.105D-02-0.257D-02-0.580D-01 0.208D+00 0.854D+00
 Gap=     0.184 Goal=   None    Shift=    0.000
 RMSDP=1.23D-07 MaxDP=1.07D-06 DE=-6.94D-11 OVMax= 4.21D-06

 Cycle  20  Pass 1  IDiag  1:
 E= -153.613960443132     Delta-E=       -0.000000000044 Rises=F Damp=F
 DIIS: error= 1.53D-07 at cycle   6 NSaved=   6.
 NSaved= 6 IEnMin= 6 EnMin= -153.613960443132     IErMin= 6 ErrMin= 1.53D-07
 ErrMax= 1.53D-07  0.00D+00 EMaxC= 1.00D-01 BMatC= 2.69D-12 BMatP= 2.83D-11
 IDIUse=1 WtCom= 1.00D+00 WtEn= 0.00D+00
 Coeff-Com:  0.318D-02-0.120D-01-0.432D-01-0.784D-01 0.213D+00 0.917D+00
 Coeff:      0.318D-02-0.120D-01-0.432D-01-0.784D-01 0.213D+00 0.917D+00
 Gap=     0.184 Goal=   None    Shift=    0.000
 RMSDP=8.28D-08 MaxDP=8.27D-07 DE=-4.41D-11 OVMax= 3.26D-06

 Cycle  21  Pass 1  IDiag  1:
 E= -153.613960443143     Delta-E=       -0.000000000010 Rises=F Damp=F
 DIIS: error= 9.13D-08 at cycle   7 NSaved=   7.
 NSaved= 7 IEnMin= 7 EnMin= -153.613960443143     IErMin= 7 ErrMin= 9.13D-08
 ErrMax= 9.13D-08  0.00D+00 EMaxC= 1.00D-01 BMatC= 6.22D-13 BMatP= 2.69D-12
 IDIUse=1 WtCom= 1.00D+00 WtEn= 0.00D+00
 Coeff-Com:  0.868D-03-0.130D-02 0.325D-05-0.692D-01-0.136D+00 0.267D+00
 Coeff-Com:  0.939D+00
 Coeff:      0.868D-03-0.130D-02 0.325D-05-0.692D-01-0.136D+00 0.267D+00
 Coeff:      0.939D+00
 Gap=     0.184 Goal=   None    Shift=    0.000
 RMSDP=5.47D-08 MaxDP=5.79D-07 DE=-1.03D-11 OVMax= 2.57D-06

 Cycle  22  Pass 1  IDiag  1:
 E= -153.613960443148     Delta-E=       -0.000000000005 Rises=F Damp=F
 DIIS: error= 5.30D-08 at cycle   8 NSaved=   8.
 NSaved= 8 IEnMin= 8 EnMin= -153.613960443148     IErMin= 8 ErrMin= 5.30D-08
 ErrMax= 5.30D-08  0.00D+00 EMaxC= 1.00D-01 BMatC= 1.12D-13 BMatP= 6.22D-13
 IDIUse=1 WtCom= 1.00D+00 WtEn= 0.00D+00
 Coeff-Com: -0.867D-03 0.388D-02 0.130D-01 0.409D-02-0.770D-01-0.172D+00
 Coeff-Com: -0.172D-01 0.125D+01
 Coeff:     -0.867D-03 0.388D-02 0.130D-01 0.409D-02-0.770D-01-0.172D+00
 Coeff:     -0.172D-01 0.125D+01
 Gap=     0.184 Goal=   None    Shift=    0.000
 RMSDP=4.42D-08 MaxDP=5.28D-07 DE=-4.83D-12 OVMax= 2.26D-06

 Cycle  23  Pass 1  IDiag  1:
 E= -153.613960443149     Delta-E=       -0.000000000001 Rises=F Damp=F
 DIIS: error= 2.45D-08 at cycle   9 NSaved=   9.
 NSaved= 9 IEnMin= 9 EnMin= -153.613960443149     IErMin= 9 ErrMin= 2.45D-08
 ErrMax= 2.45D-08  0.00D+00 EMaxC= 1.00D-01 BMatC= 3.31D-14 BMatP= 1.12D-13
 IDIUse=1 WtCom= 1.00D+00 WtEn= 0.00D+00
 Coeff-Com: -0.228D-03 0.116D-03 0.478D-03 0.122D-01 0.502D-01-0.558D-01
 Coeff-Com: -0.321D+00-0.168D-01 0.133D+01
 Coeff:     -0.228D-03 0.116D-03 0.478D-03 0.122D-01 0.502D-01-0.558D-01
 Coeff:     -0.321D+00-0.168D-01 0.133D+01
 Gap=     0.184 Goal=   None    Shift=    0.000
 RMSDP=2.89D-08 MaxDP=3.56D-07 DE=-1.42D-12 OVMax= 1.50D-06

 Cycle  24  Pass 1  IDiag  1:
 E= -153.613960443150     Delta-E=       -0.000000000001 Rises=F Damp=F
 DIIS: error= 1.00D-08 at cycle  10 NSaved=  10.
 NSaved=10 IEnMin=10 EnMin= -153.613960443150     IErMin=10 ErrMin= 1.00D-08
 ErrMax= 1.00D-08  0.00D+00 EMaxC= 1.00D-01 BMatC= 1.33D-14 BMatP= 3.31D-14
 IDIUse=1 WtCom= 1.00D+00 WtEn= 0.00D+00
 Coeff-Com:  0.189D-03-0.121D-02-0.229D-02-0.343D-02 0.236D-01 0.314D-01
 Coeff-Com: -0.219D-01-0.261D+00 0.111D+00 0.112D+01
 Coeff:      0.189D-03-0.121D-02-0.229D-02-0.343D-02 0.236D-01 0.314D-01
 Coeff:     -0.219D-01-0.261D+00 0.111D+00 0.112D+01
 Gap=     0.184 Goal=   None    Shift=    0.000
 RMSDP=9.78D-09 MaxDP=1.21D-07 DE=-8.53D-13 OVMax= 4.97D-07

 SCF Done:  E(RM062X) =  -153.613960443     A.U. after   24 cycles
            NFock= 24  Conv=0.98D-08     -V/T= 2.0067
 KE= 1.525844644410D+02 PE=-4.968400277028D+02 EE= 1.219763975152D+02
 Leave Link  502 at Mon Aug 16 22:45:30 2021, MaxMem=   134217728 cpu:        35.6
 (Enter /soft/gaussian/09-e.01/g09/l508.exe)
 QCSCF skips out because SCF is already converged.
 Leave Link  508 at Mon Aug 16 22:45:30 2021, MaxMem=   134217728 cpu:         0.0
 (Enter /soft/gaussian/09-e.01/g09/l801.exe)
 DoSCS=F DFT=T ScalE2(SS,OS)=  1.000000  1.000000
 Range of M.O.s used for correlation:     1    62
 NBasis=    62 NAE=    12 NBE=    12 NFC=     0 NFV=     0
 NROrb=     62 NOA=    12 NOB=    12 NVA=    50 NVB=    50
 Leave Link  801 at Mon Aug 16 22:45:30 2021, MaxMem=   134217728 cpu:         0.2
 (Enter /soft/gaussian/09-e.01/g09/l1101.exe)
 Using compressed storage, NAtomX=     7.
 Will process      8 centers per pass.
 Leave Link 1101 at Mon Aug 16 22:45:30 2021, MaxMem=   134217728 cpu:         1.5
 (Enter /soft/gaussian/09-e.01/g09/l1102.exe)
 Symmetrizing basis deriv contribution to polar:
 IMax=3 JMax=2 DiffMx= 0.00D+00
 Leave Link 1102 at Mon Aug 16 22:45:31 2021, MaxMem=   134217728 cpu:         0.2
 (Enter /soft/gaussian/09-e.01/g09/l1110.exe)
 Forming Gx(P) for the SCF density, NAtomX=     7.
 Integral derivatives from FoFJK, PRISM(SPDF).
 Do as many integral derivatives as possible in FoFJK.
 G2DrvN: MDV=     134217568.
 G2DrvN: will do     8 centers at a time, making    1 passes.
 Calling FoFCou, ICntrl=  3107 FMM=F I1Cent=   0 AccDes= 0.00D+00.
 FoFJK:  IHMeth= 1 ICntrl=    3107 DoSepK=F KAlg= 0 I1Cent=   0 FoldK=F
 IRaf=         0 NMat=   1 IRICut=       1 DoRegI=T DoRafI=F ISym2E= 0.
 FoFCou: FMM=F IPFlag=           0 FMFlag=      100000 FMFlg1=           0
         NFxFlg=           0 DoJE=F BraDBF=F KetDBF=F FulRan=T
         wScrn=  0.000000 ICntrl=    3107 IOpCl=  0 I1Cent=           0 NGrid=           0
         NMat0=    1 NMatS0=      1 NMatT0=    0 NMatD0=    1 NMtDS0=    0 NMtDT0=    0
 Symmetry not used in FoFCou.
 End of G2Drv F.D. properties file   721 does not exist.
 End of G2Drv F.D. properties file   722 does not exist.
 End of G2Drv F.D. properties file   788 does not exist.
 Leave Link 1110 at Mon Aug 16 22:45:34 2021, MaxMem=   134217728 cpu:        35.3
 (Enter /soft/gaussian/09-e.01/g09/l1002.exe)
 Minotr:  Closed shell wavefunction.
          IDoAtm=1111111
          Direct CPHF calculation.
          Differentiating once with respect to electric field.
                with respect to dipole field.
          Differentiating once with respect to nuclear coordinates.
          Requested convergence is 1.0D-08 RMS, and 1.0D-07 maximum.
          Secondary convergence is 1.0D-12 RMS, and 1.0D-12 maximum.
          NewPWx=T KeepS1=F KeepF1=F KeepIn=T MapXYZ=F SortEE=F KeepMc=T.
          MDV=     134217592 using IRadAn=       1.
 Generate precomputed XC quadrature information.
 Keep R1 ints in memory in canonical form, NReq=2796611.
 FoFCou: FMM=F IPFlag=           0 FMFlag=           0 FMFlg1=           0
         NFxFlg=           0 DoJE=F BraDBF=F KetDBF=F FulRan=T
         wScrn=  0.000000 ICntrl=     600 IOpCl=  0 I1Cent=           0 NGrid=           0
         NMat0=    1 NMatS0=   1953 NMatT0=    0 NMatD0=    1 NMtDS0=    0 NMtDT0=    0
 Symmetry not used in FoFCou.
          Solving linear equations simultaneously, MaxMat=       0.
          There are    24 degrees of freedom in the 1st order CPHF.  IDoFFX=6 NUNeed=     3.
     21 vectors produced by pass  0 Test12= 2.50D-15 4.17D-09 XBig12= 9.29D+01 8.87D+00.
 AX will form    21 AO Fock derivatives at one time.
     21 vectors produced by pass  1 Test12= 2.50D-15 4.17D-09 XBig12= 2.23D+01 1.17D+00.
     21 vectors produced by pass  2 Test12= 2.50D-15 4.17D-09 XBig12= 5.25D-01 2.65D-01.
     21 vectors produced by pass  3 Test12= 2.50D-15 4.17D-09 XBig12= 5.26D-03 2.00D-02.
     21 vectors produced by pass  4 Test12= 2.50D-15 4.17D-09 XBig12= 2.05D-05 1.03D-03.
     21 vectors produced by pass  5 Test12= 2.50D-15 4.17D-09 XBig12= 4.36D-08 3.96D-05.
      8 vectors produced by pass  6 Test12= 2.50D-15 4.17D-09 XBig12= 6.72D-11 1.77D-06.
      3 vectors produced by pass  7 Test12= 2.50D-15 4.17D-09 XBig12= 1.18D-13 5.61D-08.
 InvSVY:  IOpt=1 It=  1 EMax= 3.55D-15
 Solved reduced A of dimension   137 with    24 vectors.
 FullF1:  Do perturbations    1 to     3.
 Isotropic polarizability for W=    0.000000       33.06 Bohr**3.
 End of Minotr F.D. properties file   721 does not exist.
 End of Minotr F.D. properties file   722 does not exist.
 End of Minotr F.D. properties file   788 does not exist.
 Leave Link 1002 at Mon Aug 16 22:45:39 2021, MaxMem=   134217728 cpu:        41.0
 (Enter /soft/gaussian/09-e.01/g09/l601.exe)
 Copying SCF densities to generalized density rwf, IOpCl= 0 IROHF=0.

 **********************************************************************

            Population analysis using the SCF density.

 **********************************************************************

 Alpha  occ. eigenvalues --  -19.56571 -10.62289 -10.62127  -1.07912  -0.85873
 Alpha  occ. eigenvalues --   -0.68666  -0.55866  -0.52370  -0.50070  -0.44092
 Alpha  occ. eigenvalues --   -0.28931  -0.27295
 Alpha virt. eigenvalues --   -0.08861   0.09394   0.12417   0.14258   0.17169
 Alpha virt. eigenvalues --    0.26559   0.28484   0.45146   0.50271   0.52232
 Alpha virt. eigenvalues --    0.54615   0.60339   0.64761   0.66831   0.68325
 Alpha virt. eigenvalues --    0.68597   0.72480   0.87776   0.91310   0.95865
 Alpha virt. eigenvalues --    1.02076   1.13345   1.17765   1.20387   1.24165
 Alpha virt. eigenvalues --    1.41589   1.45852   1.49919   1.56220   1.57160
 Alpha virt. eigenvalues --    1.63903   1.66683   1.73752   1.77540   1.82182
 Alpha virt. eigenvalues --    1.84412   1.89984   1.99259   2.09404   2.16558
 Alpha virt. eigenvalues --    2.19733   2.31250   2.38797   2.53865   2.64796
 Alpha virt. eigenvalues --    2.82404   2.87008   3.19040   3.31685   3.43741
          Condensed to atoms (all electrons):
               1          2          3          4          5          6
     1  O    7.958224   0.619947  -0.106578  -0.046305  -0.024930   0.005778
     2  C    0.619947   4.378645   0.336221   0.354176   0.230972  -0.008089
     3  C   -0.106578   0.336221   5.174163  -0.083603   0.049457   0.357856
     4  H   -0.046305   0.354176  -0.083603   0.726591  -0.010200   0.009117
     5  H   -0.024930   0.230972   0.049457  -0.010200   0.585357   0.002653
     6  H    0.005778  -0.008089   0.357856   0.009117   0.002653   0.565462
     7  H    0.003877  -0.001681   0.333144   0.001382   0.005188  -0.027059
               7
     1  O    0.003877
     2  C   -0.001681
     3  C    0.333144
     4  H    0.001382
     5  H    0.005188
     6  H   -0.027059
     7  H    0.608906
 Mulliken charges:
               1
     1  O   -0.410014
     2  C    0.089808
     3  C   -0.060661
     4  H    0.048841
     5  H    0.161503
     6  H    0.094281
     7  H    0.076242
 Sum of Mulliken charges =  -0.00000
 Mulliken charges with hydrogens summed into heavy atoms:
               1
     1  O   -0.410014
     2  C    0.300151
     3  C    0.109863
 APT charges:
               1
     1  O   -0.590043
     2  C    0.186209
     3  C   -0.068277
     4  H    0.058518
     5  H    0.244678
     6  H    0.086273
     7  H    0.082642
 Sum of APT charges =   0.00000
 APT charges with hydrogens summed into heavy atoms:
               1
     1  O   -0.590043
     2  C    0.489405
     3  C    0.100638
 Electronic spatial extent (au):  <R**2>=            165.2653
 Charge=             -0.0000 electrons
 Dipole moment (field-independent basis, Debye):
    X=             -4.0264    Y=              1.4028    Z=              0.6828  Tot=              4.3181
 Quadrupole moment (field-independent basis, Debye-Ang):
   XX=            -20.4632   YY=            -16.7884   ZZ=            -17.8735
   XY=              1.2453   XZ=              0.1148   YZ=              0.4149
 Traceless Quadrupole moment (field-independent basis, Debye-Ang):
   XX=             -2.0882   YY=              1.5866   ZZ=              0.5015
   XY=              1.2453   XZ=              0.1148   YZ=              0.4149
 Octapole moment (field-independent basis, Debye-Ang**2):
  XXX=             -0.8104  YYY=             -2.2710  ZZZ=              0.6331  XYY=              1.0680
  XXY=              0.0492  XXZ=             -0.8088  XZZ=              3.5701  YZZ=              0.5137
  YYZ=              0.0769  XYZ=              0.1643
 Hexadecapole moment (field-independent basis, Debye-Ang**3):
 XXXX=           -137.5974 YYYY=            -42.1214 ZZZZ=            -22.8841 XXXY=             -3.7998
 XXXZ=              1.5209 YYYX=              0.6474 YYYZ=             -0.4588 ZZZX=              0.5080
 ZZZY=              1.7264 XXYY=            -29.6801 XXZZ=            -29.0552 YYZZ=            -10.7146
 XXYZ=             -0.1020 YYXZ=             -0.3292 ZZXY=             -0.5798
 N-N= 6.866520530335D+01 E-N=-4.968400279926D+02  KE= 1.525844644410D+02
  Exact polarizability:  51.259   4.249  27.983   1.933   0.253  19.946
 Approx polarizability:  90.572   4.934  31.801   5.859   2.020  24.850
 No NMR shielding tensors so no spin-rotation constants.
 Leave Link  601 at Mon Aug 16 22:45:39 2021, MaxMem=   134217728 cpu:         1.5
 (Enter /soft/gaussian/09-e.01/g09/l701.exe)
 Compute integral second derivatives.
 ... and contract with generalized density number  0.
 Entering OneElI...
 Calculate overlap and kinetic energy integrals
    NBasis =  65  MinDer = 2  MaxDer = 2
 Requested accuracy = 0.1000D-12
 PrsmSu:  NPrtUS=  10 ThrOK=T IAlg=1 NPAlg=1 LenDen=           0.
 Prism:   IPart=     0 DynPar=F LinDyn=F Incr=           1.
 PRISM was handed    13393151 working-precision words and   465 shell-pairs
 PRISM was handed    13393151 working-precision words and   465 shell-pairs
 PRISM was handed    13393151 working-precision words and   465 shell-pairs
 PRISM was handed    13393151 working-precision words and   465 shell-pairs
 PRISM was handed    13393151 working-precision words and   465 shell-pairs
 PRISM was handed    13393151 working-precision words and   465 shell-pairs
 PRISM was handed    13393151 working-precision words and   465 shell-pairs
 PRISM was handed    13393151 working-precision words and   465 shell-pairs
 PRISM was handed    13393151 working-precision words and   465 shell-pairs
 PRISM was handed    13393151 working-precision words and   465 shell-pairs
 IPart=  8 NShTot=          35 NBatch=          15 AvBLen=         2.3
 IPart=  6 NShTot=          41 NBatch=          17 AvBLen=         2.4
 IPart=  9 NShTot=          31 NBatch=          13 AvBLen=         2.4
 IPart=  7 NShTot=          40 NBatch=          16 AvBLen=         2.5
 IPart=  2 NShTot=          51 NBatch=          26 AvBLen=         2.0
 IPart=  3 NShTot=          50 NBatch=          25 AvBLen=         2.0
 IPart=  4 NShTot=          48 NBatch=          24 AvBLen=         2.0
 IPart=  5 NShTot=          44 NBatch=          20 AvBLen=         2.2
 IPart=  1 NShTot=          57 NBatch=          29 AvBLen=         2.0
 IPart=  0 NShTot=          68 NBatch=          37 AvBLen=         1.8
 PrSmSu:  NxtVal=             11.
 Entering OneElI...
 Calculate potential energy integrals
    NBasis =  65  MinDer = 2  MaxDer = 2
 Requested accuracy = 0.1000D-12
 PrsmSu:  NPrtUS=  10 ThrOK=T IAlg=1 NPAlg=1 LenDen=           0.
 Prism:   IPart=     0 DynPar=F LinDyn=F Incr=           3.
 PRISM was handed    13395810 working-precision words and   464 shell-pairs
 PRISM was handed    13395810 working-precision words and   464 shell-pairs
 PRISM was handed    13395810 working-precision words and   464 shell-pairs
 PRISM was handed    13395810 working-precision words and   464 shell-pairs
 PRISM was handed    13395810 working-precision words and   464 shell-pairs
 PRISM was handed    13395810 working-precision words and   464 shell-pairs
 PRISM was handed    13395810 working-precision words and   464 shell-pairs
 PRISM was handed    13395810 working-precision words and   464 shell-pairs
 PRISM was handed    13395810 working-precision words and   464 shell-pairs
 PRISM was handed    13395810 working-precision words and   464 shell-pairs
 IPart=  6 NShTot=         266 NBatch=          38 AvBLen=         7.0
 IPart=  4 NShTot=         336 NBatch=          48 AvBLen=         7.0
 IPart=  2 NShTot=         378 NBatch=          54 AvBLen=         7.0
 IPart=  0 NShTot=         497 NBatch=          71 AvBLen=         7.0
 IPart=  7 NShTot=         266 NBatch=          38 AvBLen=         7.0
 IPart=  9 NShTot=         210 NBatch=          30 AvBLen=         7.0
 IPart=  1 NShTot=         406 NBatch=          58 AvBLen=         7.0
 IPart=  3 NShTot=         357 NBatch=          51 AvBLen=         7.0
 IPart=  5 NShTot=         294 NBatch=          42 AvBLen=         7.0
 IPart=  8 NShTot=         238 NBatch=          34 AvBLen=         7.0
 PrSmSu:  NxtVal=             31.
 Polarizability after L701:
                1             2             3 
      1  0.512590D+02
      2  0.424895D+01  0.279825D+02
      3  0.193273D+01  0.253244D+00  0.199456D+02
 Dipole Derivatives after L701:
                 1             2             3             4             5 
      1  -0.905972D+00  0.485099D+00  0.243001D+00  0.396792D+00 -0.264456D+00
      2   0.133237D+00 -0.512882D+00  0.496095D-01 -0.451634D+00  0.156177D+00
      3   0.217569D-01  0.446028D-01 -0.351274D+00 -0.202501D+00 -0.153731D+00
                 6             7             8             9            10 
      1  -0.323079D+00 -0.175724D+00 -0.208907D+00 -0.187138D-01  0.182571D+00
      2  -0.243398D+00  0.947040D-01  0.171911D+00  0.378304D-01  0.907261D-01
      3   0.565758D-02  0.121889D+00  0.249608D-01 -0.201020D+00  0.211590D-02
                11            12            13            14            15 
      1   0.764659D-02  0.564206D-01  0.383529D+00 -0.109477D+00 -0.353671D-02
      2  -0.883585D-01  0.173061D+00  0.863779D-01  0.220533D+00  0.101262D-01
      3   0.957376D-01  0.813418D-01  0.866406D-01 -0.437442D-01  0.129973D+00
                16            17            18            19            20 
      1   0.543928D-01  0.266399D-01  0.135737D-01  0.644112D-01  0.634543D-01
      2   0.225212D-01  0.379562D-01 -0.224587D-01  0.240681D-01  0.146639D-01
      3  -0.236343D-01  0.298804D-01  0.166470D+00 -0.626741D-02  0.229323D-02
                21 
      1   0.323344D-01
      2  -0.477076D-02
      3   0.168851D+00
 Hessian after L701:
                1             2             3             4             5 
      1  0.580176D+00
      2  0.535868D+01  0.654818D+01
      3  0.311897D+00 -0.164961D+00  0.101825D+02
      4 -0.812815D+00 -0.570680D+01 -0.106636D+00  0.566739D+01
      5 -0.579503D+01 -0.677349D+01  0.903469D-01  0.315645D+01  0.138400D+02
      6 -0.811059D-01  0.683025D-01 -0.106139D+02  0.124389D+00  0.299590D+00
      7  0.134443D+00  0.395181D+00 -0.708633D-01  0.323987D-01  0.262366D+01
      8  0.467527D+00 -0.139417D+00  0.874033D-02  0.254422D+01 -0.381802D+01
      9 -0.106220D-01  0.124228D-01  0.230435D+00  0.364091D+00  0.188628D+00
     10 -0.135921D+00  0.635157D-01 -0.132463D-01 -0.284698D+01  0.180475D-01
     11  0.165626D-01  0.360101D+00 -0.123471D+00  0.480957D-01 -0.119875D+01
     12  0.250062D-01 -0.166801D+00  0.844363D-01 -0.189564D-01 -0.882420D+00
     13 -0.814922D-01 -0.671589D-01 -0.115145D+00 -0.215384D+01 -0.783950D-01
     14 -0.122433D+00  0.791906D-01  0.194860D+00 -0.105442D+00 -0.210776D+01
     15 -0.232364D+00  0.258451D+00  0.238199D+00 -0.339591D+00  0.337635D+00
     16  0.149469D+00  0.335259D-01 -0.241307D-02 -0.666469D-02  0.325309D-01
     17  0.153029D+00 -0.558417D-01 -0.430936D-02  0.122211D+00  0.108930D+00
     18 -0.281387D-01 -0.268438D-02 -0.812958D-01 -0.223089D-01 -0.293772D-01
     19  0.166141D+00 -0.769454D-01 -0.359377D-02  0.120503D+00  0.427336D-01
     20 -0.783370D-01 -0.187233D-01 -0.120520D-02 -0.587362D-01 -0.509176D-01
     21  0.153274D-01 -0.472986D-02 -0.404554D-01 -0.988623D-03 -0.440278D-02
                6             7             8             9            10 
      6  0.182700D+02
      7  0.225397D+00  0.395142D+01
      8  0.913677D-01 -0.246898D+01  0.698317D+01
      9 -0.500042D+01 -0.720587D+00 -0.729291D-01  0.103339D+02
     10 -0.397720D-03  0.693822D-01 -0.114582D+00  0.160532D+00  0.292076D+01
     11 -0.937229D+00 -0.131233D+00 -0.143746D-01  0.231691D+00 -0.169608D-01
     12 -0.220999D+01  0.141422D+00  0.147415D+00  0.540829D-02 -0.120412D+00
     13 -0.285622D+00  0.166777D+00  0.377937D+00  0.122652D+00 -0.174584D-01
     14  0.470608D+00  0.445576D+00  0.100322D-01  0.626261D-01  0.224242D-02
     15 -0.340253D+00  0.282212D+00  0.208622D+00 -0.504776D+00 -0.832073D-02
     16  0.153524D-01 -0.278536D+01  0.722398D-01 -0.178462D-01 -0.549882D-02
     17  0.607999D-02 -0.116486D+00 -0.100974D+01 -0.381784D+00  0.449098D-01
     18 -0.351006D-01  0.361557D-01 -0.331619D+00 -0.256267D+01 -0.161292D-01
     19  0.198699D-02 -0.156906D+01 -0.878356D+00  0.101780D+00  0.157076D-01
     20  0.128039D-02 -0.747715D+00 -0.201164D+01 -0.406551D-01  0.282732D-02
     21 -0.703837D-01  0.106263D+00 -0.515974D-01 -0.250185D+01 -0.202572D-02
               11            12            13            14            15 
     11  0.775966D+00
     12  0.940838D+00  0.203820D+01
     13  0.246459D-02  0.451926D-02  0.204756D+01
     14 -0.814092D-02 -0.288624D-02 -0.263268D+00  0.200878D+01
     15 -0.803028D-01  0.101755D+00  0.236042D+00 -0.757649D+00  0.501454D+00
     16  0.516606D-01 -0.174730D-01 -0.140633D-02  0.197395D-01  0.118843D-01
     17  0.969726D-01 -0.375555D-01  0.316572D-01  0.387410D-01  0.380348D-01
     18 -0.274451D-01 -0.109493D-01  0.133608D-01  0.161247D-01 -0.342085D-02
     19  0.294099D-01 -0.141062D-01  0.398572D-01  0.235863D-01  0.501374D-01
     20 -0.117734D-01  0.140865D-02 -0.323606D-02 -0.208455D-01 -0.479067D-02
     21 -0.408168D-02 -0.886667D-02  0.241928D-01  0.163169D-01  0.704169D-02
               16            17            18            19            20 
     16  0.261561D+01
     17 -0.267256D+00  0.855538D+00
     18  0.184509D-01  0.368014D+00  0.265153D+01
     19  0.338507D-01  0.319342D-01 -0.139049D-02  0.119300D+01
     20  0.575591D-01 -0.345970D-01  0.698763D-02  0.827638D+00  0.214850D+01
     21 -0.795524D-02  0.115206D-01  0.419109D-01 -0.134814D+00  0.369743D-01
               21 
     21  0.257261D+01
 Leave Link  701 at Mon Aug 16 22:45:39 2021, MaxMem=   134217728 cpu:         1.7
 (Enter /soft/gaussian/09-e.01/g09/l702.exe)
 L702 exits ... SP integral derivatives will be done elsewhere.
 Leave Link  702 at Mon Aug 16 22:45:39 2021, MaxMem=   134217728 cpu:         0.1
 (Enter /soft/gaussian/09-e.01/g09/l703.exe)
 Compute integral second derivatives, UseDBF=F ICtDFT=           0.
 Integral derivatives from FoFJK, PRISM(SPDF).
 ICntrl=    100127.
 Calling FoFJK, ICntrl=    100127 FMM=F ISym2X=0 I1Cent= 0 IOpClX= 0 NMat=1 NMatS=1 NMatT=0.
 FoFJK:  IHMeth= 1 ICntrl=  100127 DoSepK=F KAlg= 0 I1Cent=   0 FoldK=F
 IRaf=         0 NMat=   1 IRICut=       1 DoRegI=T DoRafI=F ISym2E= 0.
 FoFCou: FMM=F IPFlag=           0 FMFlag=      100000 FMFlg1=         800
         NFxFlg=           0 DoJE=F BraDBF=F KetDBF=F FulRan=T
         wScrn=  0.000000 ICntrl=  100127 IOpCl=  0 I1Cent=           0 NGrid=           0
         NMat0=    1 NMatS0=      1 NMatT0=    0 NMatD0=    1 NMtDS0=    0 NMtDT0=    0
 Symmetry not used in FoFCou.
 FoFCou:  KetSym=F NOpSet=  1 NOpAb=1 NOp=  1.
 FoFCou:  CnvScl= 1.00D+00 Thresh= 1.00D-10 IAcrcy=      10.
 PrismS was handed   134158672 working-precision words and   465 shell-pairs
 FoFCou: LinMIO=F DoNuc=F BraDBF=F KetDBF=F HaveP=T PDBF=F HaveZ=T HaveW=F
         NIJTC =       6 NIJTAt=       0 NIJTCD=       0 NIJTT =       6
         IJTBeg=       1 IJTEnd=       6 KLTBeg=       1 KLTEnd=       6
         IPTBeg=       1 IPTEnd=       6 IPTBCv=       1 IPTECv=       6
         IZTBeg=       1 IZTEnd=       6 IZTBCv=       1 IZTECv=       6
         IWTBeg=       7 IWTEnd=       6 IWTBCv=       7 IWTECv=       6
         INTBeg=       1 INTEnd=       0 IFTBCv=       1 IFTECv=       6
 NCel replicated for PrismC:     1
 CoulSu:  IncDef=  1024 NBBP=         108345 NTPThr=   100 NPartT=   10 Incr=         108 LDynOK=F.
 CoulSu:  NPrtUS=  10 ThrOK=T IAlg=1 NPAlg=1 LenDen=           0 LWGrdD=           0 DoCopy=F.
 Enter PrismC: JobTyp=22 DoJE=F Cont=F.
 PrismC:  IPart=     0 DynPar=F LinDyn=F Incr=         108 UseFst=F UseS4=T IGathr=2.
 PrismC was handed    13395056 working-precision words and   465 shell-pairs
 Enter PrismC: JobTyp=22 DoJE=F Cont=F.
 PrismC was handed    13395056 working-precision words and   465 shell-pairs
 Enter PrismC: JobTyp=22 DoJE=F Cont=F.
 Enter PrismC: JobTyp=22 DoJE=F Cont=F.
 PrismC was handed    13395056 working-precision words and   465 shell-pairs
 PrismC was handed    13395056 working-precision words and   465 shell-pairs
 Enter PrismC: JobTyp=22 DoJE=F Cont=F.
 Enter PrismC: JobTyp=22 DoJE=F Cont=F.
 PrismC was handed    13395056 working-precision words and   465 shell-pairs
 Enter PrismC: JobTyp=22 DoJE=F Cont=F.
 PrismC was handed    13395056 working-precision words and   465 shell-pairs
 PrismC was handed    13395056 working-precision words and   465 shell-pairs
 Enter PrismC: JobTyp=22 DoJE=F Cont=F.
 Enter PrismC: JobTyp=22 DoJE=F Cont=F.
 PrismC was handed    13395056 working-precision words and   465 shell-pairs
 PrismC was handed    13395056 working-precision words and   465 shell-pairs
 Enter PrismC: JobTyp=22 DoJE=F Cont=F.
 PrismC was handed    13395056 working-precision words and   465 shell-pairs
 IPart=  9 NShTot=       10299 NShNF=       10299 NShFF=           0 NBatch=         750 AvBLen=        13.7
 IPart=  6 NShTot=       10456 NShNF=       10456 NShFF=           0 NBatch=         793 AvBLen=        13.2
 IPart=  7 NShTot=       10441 NShNF=       10441 NShFF=           0 NBatch=         786 AvBLen=        13.3
 IPart=  5 NShTot=       10590 NShNF=       10590 NShFF=           0 NBatch=         848 AvBLen=        12.5
 IPart=  4 NShTot=       10694 NShNF=       10694 NShFF=           0 NBatch=         897 AvBLen=        11.9
 IPart=  3 NShTot=       10775 NShNF=       10775 NShFF=           0 NBatch=         939 AvBLen=        11.5
 IPart=  2 NShTot=       10814 NShNF=       10814 NShFF=           0 NBatch=         956 AvBLen=        11.3
 IPart=  1 NShTot=       10878 NShNF=       10878 NShFF=           0 NBatch=         970 AvBLen=        11.2
 IPart=  8 NShTot=       10383 NShNF=       10383 NShFF=           0 NBatch=         782 AvBLen=        13.3
 IPart=  0 NShTot=       11192 NShNF=       11192 NShFF=           0 NBatch=        1056 AvBLen=        10.6
 CoulSu:  NxtVal=           1081.
 ReadGW:  IGet=0 IStart=           1 Next=           1 LGW=           0.
 Remaining memory in FofDFT      128.00 Mw
 CkSvGd:  ISavGI=        -1 IRadAn=       5 IRASav=       5 ISavGd=        -1.
 CalDSu:  NPrtUS=  10 ThrOK=T IAlg=1 NPAlg=2 DoDPD=T LenP=        2145 LenD1P=             0.
 IPart=  0 IRanGd=          0 ScrnBf=T ScrnGd=T RCrit=4.00D+00 DoMicB=T.
 IPart=  8        13043 of        14412 points in      15 batches and      109 microbatches, Max-NSigAt=       7 Max-NSgAt2=       7
 IPart=  2        16025 of        17546 points in      16 batches and      100 microbatches, Max-NSigAt=       7 Max-NSgAt2=       7
 IPart=  0        14561 of        15648 points in      14 batches and       81 microbatches, Max-NSigAt=       7 Max-NSgAt2=       7
 IPart=  1        13816 of        14910 points in      14 batches and       88 microbatches, Max-NSigAt=       7 Max-NSgAt2=       7
 IPart=  9        15489 of        16998 points in      17 batches and      104 microbatches, Max-NSigAt=       7 Max-NSgAt2=       7
 IPart=  6        13409 of        14378 points in      13 batches and       95 microbatches, Max-NSigAt=       7 Max-NSgAt2=       7
 IPart=  5        13319 of        14230 points in      12 batches and       89 microbatches, Max-NSigAt=       7 Max-NSgAt2=       7
 IPart=  3        13849 of        14862 points in      14 batches and       76 microbatches, Max-NSigAt=       7 Max-NSgAt2=       7
 IPart=  7        13975 of        14356 points in      11 batches and       61 microbatches, Max-NSigAt=       7 Max-NSgAt2=       7
 IPart=  4        14464 of        15900 points in      14 batches and       71 microbatches, Max-NSigAt=       7 Max-NSgAt2=       7
 Polarizability after L703:
                1             2             3 
      1  0.512590D+02
      2  0.424895D+01  0.279825D+02
      3  0.193273D+01  0.253244D+00  0.199456D+02
 Dipole Derivatives after L703:
                 1             2             3             4             5 
      1  -0.905972D+00  0.485099D+00  0.243001D+00  0.396792D+00 -0.264456D+00
      2   0.133237D+00 -0.512882D+00  0.496095D-01 -0.451634D+00  0.156177D+00
      3   0.217569D-01  0.446028D-01 -0.351274D+00 -0.202501D+00 -0.153731D+00
                 6             7             8             9            10 
      1  -0.323079D+00 -0.175724D+00 -0.208907D+00 -0.187138D-01  0.182571D+00
      2  -0.243398D+00  0.947040D-01  0.171911D+00  0.378304D-01  0.907261D-01
      3   0.565758D-02  0.121889D+00  0.249608D-01 -0.201020D+00  0.211590D-02
                11            12            13            14            15 
      1   0.764659D-02  0.564206D-01  0.383529D+00 -0.109477D+00 -0.353671D-02
      2  -0.883585D-01  0.173061D+00  0.863779D-01  0.220533D+00  0.101262D-01
      3   0.957376D-01  0.813418D-01  0.866406D-01 -0.437442D-01  0.129973D+00
                16            17            18            19            20 
      1   0.543928D-01  0.266399D-01  0.135737D-01  0.644112D-01  0.634543D-01
      2   0.225212D-01  0.379562D-01 -0.224587D-01  0.240681D-01  0.146639D-01
      3  -0.236343D-01  0.298804D-01  0.166470D+00 -0.626741D-02  0.229323D-02
                21 
      1   0.323344D-01
      2  -0.477076D-02
      3   0.168851D+00
 Hessian after L703:
                1             2             3             4             5 
      1  0.396132D+00
      2 -0.184199D+00  0.178379D+00
      3 -0.107469D-01  0.715142D-04  0.388546D-01
      4 -0.277548D+00  0.136280D+00  0.222672D-01  0.481465D+00
      5  0.115616D+00 -0.166057D+00 -0.732575D-02 -0.326610D-01  0.493728D+00
      6 -0.260978D-01  0.241624D-01 -0.543796D-01  0.998657D-02 -0.645960D-01
      7 -0.633238D-01 -0.747530D-02 -0.826600D-02 -0.214320D+00 -0.563168D-01
      8  0.304518D-01  0.205117D-01 -0.158274D-02 -0.721295D-01 -0.128703D+00
      9  0.129532D-01 -0.829302D-02  0.112933D-01 -0.495221D-02  0.348284D-01
     10 -0.767315D-02  0.305276D-01 -0.117815D-01 -0.421733D-01 -0.897649D-02
     11  0.267127D-01 -0.222458D-01  0.873958D-02 -0.202344D-01 -0.200545D+00
     12 -0.547778D-02 -0.126411D-02  0.866497D-02  0.110133D-01  0.105521D+00
     13 -0.454209D-01  0.260251D-01  0.111889D-01  0.535248D-01 -0.139938D-01
     14  0.129506D-01 -0.107824D-01  0.283170D-02 -0.198446D-02 -0.153946D-02
     15  0.238971D-01 -0.129356D-01 -0.803952D-03 -0.166095D-01 -0.503451D-01
     16  0.357437D-02  0.392965D-02 -0.428699D-03  0.573459D-02 -0.248113D-01
     17 -0.276071D-03  0.170278D-02 -0.220106D-02  0.563006D-02 -0.923944D-02
     18 -0.548053D-03 -0.379769D-03 -0.655180D-02 -0.952806D-02 -0.111926D-01
     19 -0.573978D-02 -0.508804D-02 -0.223297D-02 -0.668272D-02  0.211431D-01
     20 -0.125637D-02 -0.150834D-02 -0.533247D-03 -0.149007D-01  0.123551D-01
     21  0.602021D-02 -0.136142D-02  0.292252D-02 -0.121773D-01 -0.689035D-02
                6             7             8             9            10 
      6  0.310131D+00
      7  0.143762D-01  0.598626D+00
      8  0.260526D-01 -0.572159D-01  0.635925D+00
      9 -0.109066D-01 -0.104983D-01 -0.881702D-01  0.117865D+00
     10  0.779412D-02  0.263097D-02 -0.230742D-01  0.126936D-01  0.522858D-01
     11  0.981097D-01 -0.679979D-02 -0.161894D-01  0.826335D-02  0.256699D-02
     12 -0.838575D-01 -0.559476D-02 -0.711554D-02 -0.524786D-02 -0.597782D-02
     13 -0.196999D-01 -0.536559D-02  0.384910D-04  0.619213D-02 -0.293304D-03
     14 -0.934314D-01  0.144574D-02 -0.132932D-01 -0.687361D-02  0.107105D-02
     15 -0.177763D+00  0.255154D-02 -0.525142D-02 -0.368221D-01 -0.685854D-04
     16  0.973729D-02 -0.545465D-01 -0.159710D-01 -0.296839D-02 -0.471173D-02
     17  0.864472D-02 -0.145873D-01 -0.347064D+00  0.530467D-01 -0.325788D-02
     18  0.173870D-01  0.742601D-02  0.655198D-01 -0.494970D-01 -0.334331D-02
     19  0.390345D-02 -0.263702D+00  0.137900D+00 -0.134200D-01 -0.653433D-04
     20  0.105796D-02  0.140949D+00 -0.151188D+00  0.719840D-02  0.114286D-02
     21 -0.611735D-03  0.532576D-05  0.105476D-01 -0.266848D-01  0.683544D-03
               11            12            13            14            15 
     11  0.242484D+00
     12 -0.114229D+00  0.894214D-01
     13  0.168738D-02  0.699095D-02 -0.283664D-02
     14 -0.282472D-02  0.176824D-01 -0.149272D-01  0.264430D-01
     15 -0.177954D-02 -0.123424D-01 -0.910920D-02  0.693663D-01  0.220883D+00
     16 -0.303160D-02 -0.125858D-02  0.566121D-03  0.238886D-03 -0.810250D-03
     17 -0.295169D-03 -0.139206D-02 -0.326981D-04  0.832357D-03  0.492576D-03
     18  0.228033D-02  0.271119D-02  0.566155D-02  0.521197D-02  0.294360D-02
     19 -0.901297D-03  0.304668D-03 -0.174475D-03  0.120533D-02  0.148924D-03
     20 -0.384683D-03  0.797482D-03  0.120273D-02  0.116436D-02  0.452801D-03
     21 -0.138394D-02  0.650237D-03 -0.122446D-02  0.521264D-02  0.390437D-02
               16            17            18            19            20 
     16  0.434984D-01
     17  0.180396D-01  0.358833D+00
     18 -0.162844D-02 -0.618069D-01  0.274567D-01
     19  0.588477D-02 -0.551571D-02  0.196030D-02  0.270479D+00
     20  0.216058D-01 -0.477026D-02  0.367111D-03 -0.148744D+00  0.144332D+00
     21 -0.264293D-02  0.321600D-02  0.555034D-02  0.933564D-02 -0.934051D-02
               21 
     21  0.142691D-01
 Leave Link  703 at Mon Aug 16 22:45:42 2021, MaxMem=   134217728 cpu:        30.9
 (Enter /soft/gaussian/09-e.01/g09/l716.exe)
 FrcOut:
 IF    =    46 IFX   =    67 IFXYZ =    88
 IFFX  =   109 IFFFX =   340 IFLen =    21
 IFFLen=   231 IFFFLn=     0 IEDerv=   340
 LEDerv=  1061 IFroze=  1652 ICStrt=  9550
 Dipole        =-1.58411141D+00 5.51885101D-01 2.68624192D-01
 DipoleDeriv   =-9.05972351D-01 1.33236823D-01 2.17568601D-02
                 4.85099157D-01-5.12882425D-01 4.46028307D-02
                 2.43000610D-01 4.96094801D-02-3.51274070D-01
                 3.96792247D-01-4.51634164D-01-2.02500662D-01
                -2.64456241D-01 1.56177057D-01-1.53730576D-01
                -3.23078792D-01-2.43397910D-01 5.65758235D-03
                -1.75723916D-01 9.47040283D-02 1.21889037D-01
                -2.08907109D-01 1.71911071D-01 2.49608035D-02
                -1.87138310D-02 3.78303794D-02-2.01019611D-01
                 1.82571298D-01 9.07260678D-02 2.11589824D-03
                 7.64658607D-03-8.83585477D-02 9.57375597D-02
                 5.64206432D-02 1.73061301D-01 8.13418166D-02
                 3.83528694D-01 8.63779147D-02 8.66405860D-02
                -1.09476576D-01 2.20532804D-01-4.37442213D-02
                -3.53670678D-03 1.01262353D-02 1.29972920D-01
                 5.43927929D-02 2.25212082D-02-2.36343133D-02
                 2.66399056D-02 3.79561661D-02 2.98803741D-02
                 1.35736785D-02-2.24587298D-02 1.66470125D-01
                 6.44112348D-02 2.40681221D-02-6.26740621D-03
                 6.34542772D-02 1.46638736D-02 2.29322935D-03
                 3.23343975D-02-4.77075639D-03 1.68851237D-01
 Polarizability= 5.12589521D+01 4.24895344D+00 2.79825235D+01
                 1.93273125D+00 2.53244397D-01 1.99456059D+01
 VibFq2-Diag1:  N=     21 IV=           8 MDV=   134206326 NE2=     6390777
 Full mass-weighted force constant matrix:
 Low frequencies --- -811.4789 -102.9489   -0.0015   -0.0009    0.0008  119.8790
 Low frequencies ---  195.8873  446.2502  501.8632
 OrtVCM:  Ph=1 IPass= 1 DotMx1= 0.00D+00
 OrtVCM:  IS=    1 I=    1 IndO=    1 Dot= 1.00D+00 DotN= 1.00D+00 ElMax1= 6.03D-01 ElMax1N= 6.03D-01
 OrtVCM:  Ph=2 NNew=    0 IAdd=    2 IPass= 1 DotMx2= 0.00D+00
 OrtVCM:  IS=    1 I=    2 IndO=    2 Dot= 1.00D+00 DotN= 1.00D+00 ElMax1= 6.03D-01 ElMax1N= 6.03D-01
 OrtVCM:  Ph=2 NNew=    0 IAdd=    3 IPass= 1 DotMx2= 0.00D+00
 OrtVCM:  IS=    1 I=    3 IndO=    3 Dot= 1.00D+00 DotN= 1.00D+00 ElMax1= 6.03D-01 ElMax1N= 6.03D-01
 OrtVCM:  Ph=2 NNew=    0 IAdd=    4 IPass= 1 DotMx2= 1.39D-17
 OrtVCM:  IS=    1 I=    4 IndO=    4 Dot= 1.00D+00 DotN= 1.00D+00 ElMax1= 4.84D-01 ElMax1N= 4.84D-01
 OrtVCM:  Ph=2 NNew=    0 IAdd=    5 IPass= 1 DotMx2= 1.80D-16
 OrtVCM:  IS=    1 I=    5 IndO=    5 Dot= 1.00D+00 DotN= 1.00D+00 ElMax1= 6.60D-01 ElMax1N= 6.60D-01
 OrtVCM:  Ph=2 NNew=    0 IAdd=    6 IPass= 1 DotMx2= 5.55D-17
 OrtVCM:  IS=    1 I=    6 IndO=    6 Dot= 1.00D+00 DotN= 1.00D+00 ElMax1= 6.18D-01 ElMax1N= 6.18D-01
 OrtVCM:  Ph=1 IPass= 1 DotMx1= 6.60D-01
 OrtVCM:  Ph=1 IPass= 2 DotMx1= 2.43D-16
 OrtVCM:  IS=    1 I=    1 IndO=    7 Dot= 6.20D-01 DotN= 6.20D-01 ElMax1= 6.20D-01 ElMax1N= 6.20D-01
 OrtVCM:  Ph=2 NNew=    0 IAdd=    2 IPass= 1 DotMx2= 1.02D-01
 OrtVCM:  Ph=2 NNew=    0 IAdd=    2 IPass= 2 DotMx2= 1.26D-17
 OrtVCM:  IS=    1 I=    2 IndO=    8 Dot= 2.44D-01 DotN= 2.44D-01 ElMax1= 3.26D-01 ElMax1N= 3.26D-01
 OrtVCM:  Ph=2 NNew=    0 IAdd=    3 IPass= 1 DotMx2= 1.11D-02
 OrtVCM:  Ph=2 NNew=    0 IAdd=    3 IPass= 2 DotMx2= 5.64D-18
 OrtVCM:  IS=    1 I=    3 IndO=    9 Dot= 1.06D-01 DotN= 1.06D-01 ElMax1= 1.77D-01 ElMax1N= 1.77D-01
 OrtVCM:  Ph=2 NNew=    0 IAdd=    4 IPass= 1 DotMx2= 3.66D-01
 OrtVCM:  Ph=2 NNew=    0 IAdd=    4 IPass= 2 DotMx2= 6.06D-17
 OrtVCM:  IS=    1 I=    4 IndO=   10 Dot= 5.19D-01 DotN= 5.19D-01 ElMax1= 5.19D-01 ElMax1N= 5.19D-01
 OrtVCM:  Ph=2 NNew=    0 IAdd=    5 IPass= 1 DotMx2= 6.60D-01
 OrtVCM:  Ph=2 NNew=    0 IAdd=    5 IPass= 2 DotMx2= 2.08D-16
 OrtVCM:  IS=    1 I=    5 IndO=   11 Dot= 2.63D-01 DotN= 2.63D-01 ElMax1= 2.63D-01 ElMax1N= 2.63D-01
 OrtVCM:  Ph=2 NNew=    0 IAdd=    6 IPass= 1 DotMx2= 5.44D-01
 OrtVCM:  Ph=2 NNew=    0 IAdd=    6 IPass= 2 DotMx2= 1.39D-16
 OrtVCM:  IS=    1 I=    6 IndO=   12 Dot= 1.96D-01 DotN= 1.96D-01 ElMax1= 2.22D-01 ElMax1N= 2.22D-01
 OrtVCM:  Ph=2 NNew=    0 IAdd=    7 IPass= 1 DotMx2= 5.07D-01
 OrtVCM:  Ph=2 NNew=    0 IAdd=    7 IPass= 2 DotMx2= 9.53D-17
 OrtVCM:  IS=    1 I=    7 IndO=   13 Dot= 2.19D-01 DotN= 2.19D-01 ElMax1= 2.76D-01 ElMax1N= 2.76D-01
 OrtVCM:  Ph=2 NNew=    0 IAdd=    8 IPass= 1 DotMx2= 3.09D-01
 OrtVCM:  Ph=2 NNew=    0 IAdd=    8 IPass= 2 DotMx2= 1.03D-16
 OrtVCM:  IS=    1 I=    8 IndO=   14 Dot= 2.33D-01 DotN= 2.33D-01 ElMax1= 2.60D-01 ElMax1N= 2.60D-01
 OrtVCM:  Ph=2 NNew=    0 IAdd=    9 IPass= 1 DotMx2= 2.24D-01
 OrtVCM:  Ph=2 NNew=    0 IAdd=    9 IPass= 2 DotMx2= 4.86D-17
 OrtVCM:  IS=    1 I=    9 IndO=   15 Dot= 2.12D-01 DotN= 2.12D-01 ElMax1= 2.96D-01 ElMax1N= 2.96D-01
 OrtVCM:  Ph=2 NNew=    0 IAdd=   10 IPass= 1 DotMx2= 3.87D-01
 OrtVCM:  Ph=2 NNew=    0 IAdd=   10 IPass= 2 DotMx2= 9.71D-17
 OrtVCM:  IS=    1 I=   10 IndO=   16 Dot= 4.73D-01 DotN= 4.73D-01 ElMax1= 4.73D-01 ElMax1N= 4.73D-01
 OrtVCM:  Ph=2 NNew=    0 IAdd=   11 IPass= 1 DotMx2= 4.34D-01
 OrtVCM:  Ph=2 NNew=    0 IAdd=   11 IPass= 2 DotMx2= 1.18D-16
 OrtVCM:  IS=    1 I=   11 IndO=   17 Dot= 4.44D-01 DotN= 4.44D-01 ElMax1= 4.44D-01 ElMax1N= 4.44D-01
 OrtVCM:  Ph=2 NNew=    0 IAdd=   12 IPass= 1 DotMx2= 5.02D-01
 OrtVCM:  Ph=2 NNew=    0 IAdd=   12 IPass= 2 DotMx2= 2.22D-16
 OrtVCM:  IS=    1 I=   12 IndO=   18 Dot= 4.25D-01 DotN= 4.25D-01 ElMax1= 4.38D-01 ElMax1N= 4.38D-01
 OrtVCM:  Ph=2 NNew=    0 IAdd=   13 IPass= 1 DotMx2= 3.94D-01
 OrtVCM:  Ph=2 NNew=    0 IAdd=   13 IPass= 2 DotMx2= 1.18D-16
 OrtVCM:  IS=    1 I=   13 IndO=   19 Dot= 3.98D-01 DotN= 3.98D-01 ElMax1= 3.98D-01 ElMax1N= 3.98D-01
 OrtVCM:  Ph=2 NNew=    0 IAdd=   14 IPass= 1 DotMx2= 3.40D-01
 OrtVCM:  Ph=2 NNew=    0 IAdd=   14 IPass= 2 DotMx2= 1.39D-16
 OrtVCM:  IS=    1 I=   14 IndO=   20 Dot= 2.85D-01 DotN= 2.85D-01 ElMax1= 2.85D-01 ElMax1N= 2.85D-01
 OrtVCM:  Ph=2 NNew=    0 IAdd=   15 IPass= 1 DotMx2= 6.71D-01
 OrtVCM:  Ph=2 NNew=    0 IAdd=   15 IPass= 2 DotMx2= 1.46D-16
 OrtVCM:  IS=    1 I=   15 IndO=    0 Dot= 1.60D-32 DotN= 1.60D-32 ElMax1= 5.25D-17 ElMax1N= 5.25D-17
 SchOr2:  IPass= 1 Test2A= 1.00D-01 IOff=     0 NDo=    15 NNew=    14
 OrtVCM:  Ph=1 IPass= 1 DotMx1= 5.90D-01
 OrtVCM:  Ph=1 IPass= 2 DotMx1= 3.78D-16
 OrtVCM:  IS=    1 I=    1 IndO=   21 Dot= 1.02D-01 DotN= 1.02D-01 ElMax1= 1.99D-01 ElMax1N= 1.99D-01
 SchOr2:  IPass= 1 Test2A= 1.00D-01 IOff=    15 NDo=     1 NNew=     1
 VibFq2-Diag2:  N=     15 IV=           8 MDV=   134206326 NE2=     8947087
 ******    1 imaginary frequencies (negative Signs) ****** 
 Dipole derivative wrt mode   1:  3.48964D+00  4.77273D+00 -6.00990D-01
 Vibrational polarizability contributions from mode   1       0.4993053       0.9339843       0.0148095
 Dipole derivative wrt mode   2:  8.59815D+00  5.31535D-01  3.29935D+00
 Vibrational polarizability contributions from mode   2      11.1019084       0.0424279       1.6347208
 Dipole derivative wrt mode   3: -3.67152D+00  2.09234D+00 -2.41549D+00
 Vibrational polarizability contributions from mode   3       1.4439547       0.4689495       0.6249900
 Dipole derivative wrt mode   4: -7.33393D-01 -4.88519D-01 -5.59078D-01
 Vibrational polarizability contributions from mode   4       0.0517131       0.0229451       0.0300519
 Dipole derivative wrt mode   5: -1.29041D+00 -1.71377D+00  4.32328D+00
 Vibrational polarizability contributions from mode   5       0.0633238       0.1116908       0.7107892
 Dipole derivative wrt mode   6:  2.37616D+00 -1.89962D+00  2.50645D+00
 Vibrational polarizability contributions from mode   6       0.1747472       0.1116842       0.1944375
 Dipole derivative wrt mode   7:  4.29028D+00  5.43771D+00  5.31633D+00
 Vibrational polarizability contributions from mode   7       0.4682863       0.7522692       0.7190603
 Dipole derivative wrt mode   8: -2.41697D+00 -2.16491D+00  1.41200D+00
 Vibrational polarizability contributions from mode   8       0.1230401       0.0987152       0.0419926
 Dipole derivative wrt mode   9:  9.43334D+00 -4.50101D-01 -7.21965D-01
 Vibrational polarizability contributions from mode   9       1.5748242       0.0035853       0.0092243
 Dipole derivative wrt mode  10:  5.51345D+00 -4.32683D+00  5.76625D-01
 Vibrational polarizability contributions from mode  10       0.4351026       0.2679687       0.0047592
 Dipole derivative wrt mode  11:  6.77318D+00 -2.46765D+00 -1.46835D+00
 Vibrational polarizability contributions from mode  11       0.5999548       0.0796347       0.0281963
 Dipole derivative wrt mode  12: -1.29035D+00  2.49120D+00  3.61700D+00
 Vibrational polarizability contributions from mode  12       0.0065861       0.0245490       0.0517504
 Dipole derivative wrt mode  13: -4.17713D-01 -5.58555D+00  1.64974D+00
 Vibrational polarizability contributions from mode  13       0.0005517       0.0986535       0.0086062
 Dipole derivative wrt mode  14:  1.41139D+00  7.71014D-01 -3.71627D-01
 Vibrational polarizability contributions from mode  14       0.0053299       0.0015906       0.0003695
 Dipole derivative wrt mode  15:  5.00138D-01  2.63048D-01  1.74463D-02
 Vibrational polarizability contributions from mode  15       0.0006142       0.0001699       0.0000007
 Diagonal vibrational polarizability:
       16.5492424       3.0188178       4.0737587
 NorSel:  MapVib=      1      2      3      4      5      6      7      8      9     10
 NorSel:  MapVib=     11     12     13     14     15
 Harmonic frequencies (cm**-1), IR intensities (KM/Mole), Raman scattering
 activities (A**4/AMU), depolarization ratios for plane and unpolarized
 incident light, reduced masses (AMU), force constants (mDyne/A),
 and normal coordinates:
                      1                      2                      3
                      A                      A                      A
 Frequencies --   -810.1465               423.3237               501.2287
 Red. masses --      1.1811                 1.4499                 1.8142
 Frc consts  --      0.4567                 0.1531                 0.2685
 IR Inten    --     35.3177                85.0964                23.6926
  Atom  AN      X      Y      Z        X      Y      Z        X      Y      Z
     1   8     0.02  -0.01  -0.01    -0.04  -0.04   0.07    -0.14  -0.09  -0.03
     2   6    -0.06  -0.00   0.10    -0.06   0.11  -0.11     0.05   0.12   0.06
     3   6    -0.02  -0.02  -0.04     0.03  -0.01  -0.01     0.12  -0.01  -0.00
     4   1    -0.07  -0.11  -0.16     0.08   0.13   0.00     0.11   0.09  -0.03
     5   1     0.75   0.55  -0.07     0.61  -0.55   0.13    -0.38   0.49  -0.08
     6   1    -0.03  -0.05  -0.25     0.34  -0.01   0.04     0.59  -0.07  -0.14
     7   1    -0.03  -0.04  -0.04    -0.10  -0.20   0.28    -0.12  -0.37   0.02
                      4                      5                      6
                      A                      A                      A
 Frequencies --    529.0576               841.2194               932.4733
 Red. masses --      1.0907                 1.7902                 1.7771
 Frc consts  --      0.1799                 0.7464                 0.9104
 IR Inten    --      1.0891                23.2929                15.5370
  Atom  AN      X      Y      Z        X      Y      Z        X      Y      Z
     1   8     0.00   0.01   0.04     0.05  -0.02  -0.03    -0.12   0.00  -0.01
     2   6     0.03  -0.03  -0.05     0.07   0.08   0.10    -0.00   0.06   0.05
     3   6    -0.01   0.00  -0.01    -0.13  -0.06  -0.16     0.18  -0.09  -0.06
     4   1    -0.06  -0.07  -0.17     0.23  -0.05  -0.14    -0.28  -0.05  -0.18
     5   1    -0.17   0.14  -0.12    -0.07   0.06   0.03     0.10  -0.09   0.07
     6   1    -0.05  -0.09  -0.48    -0.09   0.09   0.71    -0.46   0.01   0.29
     7   1     0.04   0.13   0.80    -0.23  -0.15   0.50     0.53   0.46   0.14
                      7                      8                      9
                      A                      A                      A
 Frequencies --   1028.4808              1130.3522              1233.1506
 Red. masses --      1.3445                 1.7616                 1.2605
 Frc consts  --      0.8379                 1.3261                 1.1294
 IR Inten    --     76.2386                12.5223                89.7118
  Atom  AN      X      Y      Z        X      Y      Z        X      Y      Z
     1   8    -0.03   0.03   0.01     0.00   0.03  -0.02    -0.08   0.08  -0.01
     2   6    -0.06  -0.13  -0.06    -0.10  -0.14   0.09     0.01  -0.06   0.02
     3   6     0.05   0.02  -0.05     0.07   0.14  -0.06    -0.00  -0.03   0.02
     4   1     0.15   0.29   0.67    -0.23  -0.43  -0.44     0.93  -0.18  -0.18
     5   1     0.11   0.35  -0.19    -0.10  -0.25   0.09     0.09  -0.09   0.06
     6   1     0.16   0.10   0.36     0.58   0.17   0.21     0.00  -0.05  -0.09
     7   1     0.09   0.07   0.24    -0.01   0.01   0.13     0.08   0.08  -0.03
                     10                     11                     12
                      A                      A                      A
 Frequencies --   1371.1795              1434.4973              2608.3053
 Red. masses --      2.2218                 1.6362                 1.0670
 Frc consts  --      2.4612                 1.9838                 4.2769
 IR Inten    --     49.4521                54.1213                20.9538
  Atom  AN      X      Y      Z        X      Y      Z        X      Y      Z
     1   8    -0.14   0.09   0.02    -0.06   0.03   0.01     0.01  -0.01  -0.00
     2   6     0.23  -0.12  -0.01     0.16  -0.02  -0.00    -0.01  -0.02  -0.07
     3   6     0.03   0.07  -0.02    -0.15  -0.06  -0.01     0.00  -0.00  -0.01
     4   1    -0.35  -0.06   0.02    -0.26   0.04   0.03     0.00   0.04  -0.05
     5   1     0.31  -0.08   0.05     0.17   0.00   0.03    -0.05   0.31   0.94
     6   1    -0.36   0.08   0.03     0.67  -0.11   0.03    -0.00   0.01   0.02
     7   1    -0.42  -0.59   0.01     0.25   0.55  -0.12     0.01  -0.00   0.03
                     13                     14                     15
                      A                      A                      A
 Frequencies --   2917.2687              3171.4025              3310.6895
 Red. masses --      1.0743                 1.0515                 1.1221
 Frc consts  --      5.3869                 6.2312                 7.2463
 IR Inten    --     34.0945                 2.7246                 0.3196
  Atom  AN      X      Y      Z        X      Y      Z        X      Y      Z
     1   8     0.00  -0.00   0.00    -0.00  -0.00  -0.00    -0.00   0.00   0.00
     2   6    -0.01  -0.07   0.04     0.01   0.00   0.00     0.00  -0.00   0.00
     3   6    -0.00   0.00   0.00    -0.06  -0.03   0.01     0.04  -0.09   0.01
     4   1     0.02   0.87  -0.48    -0.01  -0.00  -0.00     0.00   0.01  -0.01
     5   1    -0.00  -0.05  -0.03    -0.00   0.00  -0.00    -0.00   0.00   0.00
     6   1    -0.00  -0.01   0.01     0.03   0.68  -0.12     0.04   0.70  -0.13
     7   1     0.01  -0.01  -0.00     0.60  -0.40   0.03    -0.57   0.38  -0.02

 -------------------
 - Thermochemistry -
 -------------------
 Temperature   298.150 Kelvin.  Pressure   1.00000 Atm.
 Atom     1 has atomic number  8 and mass  15.99491
 Atom     2 has atomic number  6 and mass  12.00000
 Atom     3 has atomic number  6 and mass  12.00000
 Atom     4 has atomic number  1 and mass   1.00783
 Atom     5 has atomic number  1 and mass   1.00783
 Atom     6 has atomic number  1 and mass   1.00783
 Atom     7 has atomic number  1 and mass   1.00783
 Molecular mass:    44.02621 amu.
 Principal axes and moments of inertia in atomic units:
                           1         2         3
     Eigenvalues --    35.33908 174.37992 198.64887
           X            1.00000   0.00000  -0.00000
           Y           -0.00000   1.00000  -0.00000
           Z            0.00000   0.00000   1.00000
 This molecule is an asymmetric top.
 Rotational symmetry number  1.
 Rotational temperatures (Kelvin)      2.45094     0.49670     0.43601
 Rotational constants (GHZ):          51.06928    10.34948     9.08508
    1 imaginary frequencies ignored.
 Zero-point vibrational energy     128195.6 (Joules/Mol)
                                   30.63948 (Kcal/Mol)
 Warning -- explicit consideration of   3 degrees of freedom as
           vibrations may cause significant error
 Vibrational temperatures:    609.07   721.16   761.19  1210.33  1341.62
          (Kelvin)           1479.75  1626.32  1774.23  1972.82  2063.92
                             3752.76  4197.29  4562.94  4763.34
 
 Zero-point correction=                           0.048827 (Hartree/Particle)
 Thermal correction to Energy=                    0.052573
 Thermal correction to Enthalpy=                  0.053518
 Thermal correction to Gibbs Free Energy=         0.024231
 Sum of electronic and zero-point Energies=           -153.565133
 Sum of electronic and thermal Energies=              -153.561387
 Sum of electronic and thermal Enthalpies=            -153.560443
 Sum of electronic and thermal Free Energies=         -153.589729
 
                     E (Thermal)             CV                S
                      KCal/Mol        Cal/Mol-Kelvin    Cal/Mol-Kelvin
 Total                   32.990             11.855             61.638
 Electronic               0.000              0.000              0.000
 Translational            0.889              2.981             37.273
 Rotational               0.889              2.981             21.731
 Vibrational             31.213              5.893              2.634
 Vibration     1          0.785              1.420              0.881
 Vibration     2          0.857              1.247              0.655
 Vibration     3          0.884              1.186              0.589
                       Q            Log10(Q)             Ln(Q)
 Total Bot       0.715134D-11        -11.145613        -25.663722
 Total V=0       0.205710D+12         11.313256         26.049735
 Vib (Bot)       0.497279D-22        -22.303400        -51.355477
 Vib (Bot)    1  0.413732D+00         -0.383281         -0.882538
 Vib (Bot)    2  0.327543D+00         -0.484732         -1.116137
 Vib (Bot)    3  0.302556D+00         -0.519195         -1.195490
 Vib (V=0)       0.143044D+01          0.155469          0.357980
 Vib (V=0)    1  0.114898D+01          0.060312          0.138874
 Vib (V=0)    2  0.109773D+01          0.040497          0.093247
 Vib (V=0)    3  0.108441D+01          0.035195          0.081040
 Electronic      0.100000D+01          0.000000          0.000000
 Translational   0.114821D+08          7.060022         16.256302
 Rotational      0.125246D+05          4.097765          9.435453
 
                                                               comment:
                                                             IR Spectrum
 
     3     3         2          2                                            1  1    1   1   1                                       
     3     1         9          6                                            4  3    2   1   0   9  8           55  4                
     1     7         1          0                                            3  7    3   3   2   3  4           20  2                
     1     1         7          8                                            4  1    3   0   8   2  1           91  3                
 
     X     X         X          X                                            X  X    X   X   X   X  X           XX  X                
                     X          X                                            X  X    X   X   X   X  X            X  X                
                     X          X                                            X  X    X   X   X   X  X            X  X                
                     X          X                                            X  X    X       X      X            X  X                
                     X          X                                            X  X    X       X      X            X  X                
                     X                                                       X  X    X       X                      X                
                     X                                                       X  X    X       X                      X                
                     X                                                       X  X    X       X                      X                
                                                                             X  X    X       X                      X                
                                                                             X  X    X       X                      X                
                                                                             X  X    X       X                      X                
                                                                             X       X       X                      X                
                                                                                     X       X                      X                
                                                                                     X       X                      X                
                                                                                     X       X                      X                
                                                                                     X       X                      X                
                                                                                     X       X                      X                
                                                                                     X                              X                
                                                                                     X                              X                
                                                                                     X                                               
 
 -------------------------------------------------------------------
 Center     Atomic                   Forces (Hartrees/Bohr)
 Number     Number              X              Y              Z
 -------------------------------------------------------------------
      1        8          -0.022701448    0.024255623    0.006862466
      2        6           0.032003499   -0.050163195   -0.037255730
      3        6           0.018362253    0.028433280    0.019643052
      4        1          -0.003407860    0.005593588    0.003949829
      5        1          -0.022394526   -0.007128043    0.004979300
      6        1           0.000441963   -0.001448531    0.000026545
      7        1          -0.002303881    0.000457278    0.001794539
 -------------------------------------------------------------------
 Cartesian Forces:  Max     0.050163195 RMS     0.019829594
 Z-matrix is all fixed cartesians, so copy forces.
 Force constants in Cartesian coordinates: 
                1             2             3             4             5 
      1  0.396132D+00
      2 -0.184199D+00  0.178379D+00
      3 -0.107469D-01  0.715142D-04  0.388546D-01
      4 -0.277548D+00  0.136280D+00  0.222672D-01  0.481465D+00
      5  0.115616D+00 -0.166057D+00 -0.732575D-02 -0.326610D-01  0.493728D+00
      6 -0.260978D-01  0.241624D-01 -0.543796D-01  0.998657D-02 -0.645960D-01
      7 -0.633238D-01 -0.747530D-02 -0.826600D-02 -0.214320D+00 -0.563168D-01
      8  0.304518D-01  0.205117D-01 -0.158274D-02 -0.721295D-01 -0.128703D+00
      9  0.129532D-01 -0.829302D-02  0.112933D-01 -0.495221D-02  0.348284D-01
     10 -0.767315D-02  0.305276D-01 -0.117815D-01 -0.421733D-01 -0.897649D-02
     11  0.267127D-01 -0.222458D-01  0.873958D-02 -0.202344D-01 -0.200545D+00
     12 -0.547778D-02 -0.126411D-02  0.866497D-02  0.110133D-01  0.105521D+00
     13 -0.454209D-01  0.260251D-01  0.111889D-01  0.535248D-01 -0.139938D-01
     14  0.129506D-01 -0.107824D-01  0.283170D-02 -0.198446D-02 -0.153946D-02
     15  0.238971D-01 -0.129356D-01 -0.803952D-03 -0.166095D-01 -0.503451D-01
     16  0.357437D-02  0.392965D-02 -0.428699D-03  0.573459D-02 -0.248113D-01
     17 -0.276071D-03  0.170278D-02 -0.220106D-02  0.563006D-02 -0.923944D-02
     18 -0.548053D-03 -0.379769D-03 -0.655180D-02 -0.952806D-02 -0.111926D-01
     19 -0.573978D-02 -0.508804D-02 -0.223297D-02 -0.668272D-02  0.211431D-01
     20 -0.125637D-02 -0.150834D-02 -0.533247D-03 -0.149007D-01  0.123551D-01
     21  0.602021D-02 -0.136142D-02  0.292252D-02 -0.121773D-01 -0.689035D-02
                6             7             8             9            10 
      6  0.310131D+00
      7  0.143762D-01  0.598626D+00
      8  0.260526D-01 -0.572159D-01  0.635925D+00
      9 -0.109066D-01 -0.104983D-01 -0.881702D-01  0.117865D+00
     10  0.779412D-02  0.263097D-02 -0.230742D-01  0.126936D-01  0.522858D-01
     11  0.981097D-01 -0.679979D-02 -0.161894D-01  0.826335D-02  0.256699D-02
     12 -0.838575D-01 -0.559476D-02 -0.711554D-02 -0.524786D-02 -0.597782D-02
     13 -0.196999D-01 -0.536559D-02  0.384910D-04  0.619213D-02 -0.293304D-03
     14 -0.934314D-01  0.144574D-02 -0.132932D-01 -0.687361D-02  0.107105D-02
     15 -0.177763D+00  0.255154D-02 -0.525142D-02 -0.368221D-01 -0.685854D-04
     16  0.973729D-02 -0.545465D-01 -0.159710D-01 -0.296839D-02 -0.471173D-02
     17  0.864472D-02 -0.145873D-01 -0.347064D+00  0.530467D-01 -0.325788D-02
     18  0.173870D-01  0.742601D-02  0.655198D-01 -0.494970D-01 -0.334331D-02
     19  0.390345D-02 -0.263702D+00  0.137900D+00 -0.134200D-01 -0.653433D-04
     20  0.105796D-02  0.140949D+00 -0.151188D+00  0.719840D-02  0.114286D-02
     21 -0.611735D-03  0.532576D-05  0.105476D-01 -0.266848D-01  0.683544D-03
               11            12            13            14            15 
     11  0.242484D+00
     12 -0.114229D+00  0.894214D-01
     13  0.168738D-02  0.699095D-02 -0.283664D-02
     14 -0.282472D-02  0.176824D-01 -0.149272D-01  0.264430D-01
     15 -0.177954D-02 -0.123424D-01 -0.910920D-02  0.693663D-01  0.220883D+00
     16 -0.303160D-02 -0.125858D-02  0.566121D-03  0.238886D-03 -0.810250D-03
     17 -0.295169D-03 -0.139206D-02 -0.326981D-04  0.832357D-03  0.492576D-03
     18  0.228033D-02  0.271119D-02  0.566155D-02  0.521197D-02  0.294360D-02
     19 -0.901297D-03  0.304668D-03 -0.174475D-03  0.120533D-02  0.148924D-03
     20 -0.384683D-03  0.797482D-03  0.120273D-02  0.116436D-02  0.452801D-03
     21 -0.138394D-02  0.650237D-03 -0.122446D-02  0.521264D-02  0.390437D-02
               16            17            18            19            20 
     16  0.434984D-01
     17  0.180396D-01  0.358833D+00
     18 -0.162844D-02 -0.618069D-01  0.274567D-01
     19  0.588477D-02 -0.551571D-02  0.196030D-02  0.270479D+00
     20  0.216058D-01 -0.477026D-02  0.367111D-03 -0.148744D+00  0.144332D+00
     21 -0.264293D-02  0.321600D-02  0.555034D-02  0.933564D-02 -0.934051D-02
               21 
     21  0.142691D-01
 Final forces over variables, Energy=-1.53613960D+02:
 -2.27014478D-02 3.20034991D-02 1.83622529D-02-3.40786047D-03
 -2.23945262D-02 4.41963330D-04-2.30388078D-03 2.42556235D-02
 -5.01631954D-02 2.84332796D-02 5.59358765D-03-7.12804285D-03
 -1.44853062D-03 4.57278248D-04 6.86246575D-03-3.72557298D-02
  1.96430516D-02 3.94982882D-03 4.97930004D-03 2.65450211D-05
  1.79453857D-03
 Leave Link  716 at Mon Aug 16 22:45:42 2021, MaxMem=   134217728 cpu:         0.4
 (Enter /soft/gaussian/09-e.01/g09/l103.exe)

 GradGradGradGradGradGradGradGradGradGradGradGradGradGradGradGradGradGrad
 Berny optimization.
 Search for a local minimum.
 Step number   1 out of a maximum of    2
 All quantities printed in internal units (Hartrees-Bohrs-Radians)
 Second derivative matrix not updated -- analytic derivatives used.
 ITU=  0
     Eigenvalues ---   -0.03557   0.01051   0.02098   0.02207   0.05739
     Eigenvalues ---    0.07418   0.11278   0.12848   0.16000   0.27335
     Eigenvalues ---    0.44193   0.54926   0.83240   0.89381   0.93297
 Eigenvalue     1 is  -3.56D-02 should be greater than     0.000000 Eigenvector:
                          X5        Y5        Z6        Z2        X2
   1                    0.70886   0.51587  -0.29635   0.24072  -0.12829
                          Y4        X4        Y6        Z3        X7
   1                   -0.12359  -0.09723  -0.09433  -0.09089  -0.06940
 Quadratic step=1.524D+00 exceeds max=3.000D-01 adjusted using Lamda=-1.216D-01.
 Angle between NR and scaled steps=  31.81 degrees.
 Angle between quadratic step and forces=  40.30 degrees.
 Linear search not attempted -- first point.
 B after Tr=     0.016751   -0.000734   -0.003765
         Rot=    0.999988    0.004031   -0.002751    0.000958 Ang=   0.57 deg.
 Variable       Old X    -DE/DX   Delta X   Delta X   Delta X     New X
                                 (Linear)    (Quad)   (Total)
    X1        2.17854  -0.02270   0.00000  -0.01116   0.00468   2.18323
    Y1       -0.45870   0.02426   0.00000   0.03056   0.02556  -0.43314
    Z1       -0.03026   0.00686   0.00000   0.02000   0.00778  -0.02248
    X2        0.07026   0.03200   0.00000   0.06343   0.08094   0.15120
    Y2        0.83125  -0.05016   0.00000  -0.08010  -0.08208   0.74918
    Z2       -0.00237  -0.03726   0.00000  -0.11636  -0.12692  -0.12928
    X3       -2.40306   0.01836   0.00000   0.03913   0.05535  -2.34771
    Y3       -0.42270   0.02843   0.00000   0.05390   0.05795  -0.36475
    Z3       -0.06260   0.01964   0.00000   0.08669   0.09888   0.03629
    X4        0.05785  -0.00341   0.00000  -0.02524  -0.00861   0.04924
    Y4        2.68995   0.00559   0.00000   0.02130   0.01272   2.70267
    Z4       -1.00168   0.00395   0.00000   0.04731   0.02154  -0.98015
    X5       -0.21621  -0.02239   0.00000  -0.20259  -0.17190  -0.38811
    Y5        1.46401  -0.00713   0.00000  -0.08090  -0.06433   1.39968
    Z5        2.07668   0.00498   0.00000  -0.02359  -0.03631   2.04037
    X6       -2.51533   0.00044   0.00000  -0.00281   0.01098  -2.50435
    Y6       -2.44855  -0.00145   0.00000   0.01952   0.02609  -2.42246
    Z6        0.31177   0.00003   0.00000  -0.02193   0.00772   0.31949
    X7       -4.12514  -0.00230   0.00000   0.01100   0.02855  -4.09659
    Y7        0.70986   0.00046   0.00000   0.01784   0.02410   0.73396
    Z7       -0.13294   0.00179   0.00000   0.01433   0.02730  -0.10564
         Item               Value     Threshold  Converged?
 Maximum Force            0.050163     0.000450     NO 
 RMS     Force            0.019830     0.000300     NO 
 Maximum Displacement     0.171899     0.001800     NO 
 RMS     Displacement     0.063636     0.001200     NO 
 Predicted change in Energy=-1.781846D-02
 GradGradGradGradGradGradGradGradGradGradGradGradGradGradGradGradGradGrad

 Leave Link  103 at Mon Aug 16 22:45:42 2021, MaxMem=   134217728 cpu:         0.1
 (Enter /soft/gaussian/09-e.01/g09/l9999.exe)

 Test job not archived.
 1\1\GINC-B460\Freq\RM062X\CC-pVDZ\C2H4O1\KMOORE\16-Aug-2021\0\\#P m062
 x/cc-pvdz # SCF=(xqc) # Freq=() # IOp(7/33=1) # int=ultrafine # fchk N
 oSym guess=mix\\comment:\\0,1\O,1.152835,-0.242734,-0.016015\C,0.03717
 9,0.439881,-0.001252\C,-1.271643,-0.223681,-0.033126\H,0.030613,1.4234
 6,-0.530067\H,-0.114412,0.774722,1.09893\H,-1.331055,-1.295716,0.16498
 3\H,-2.18293,0.375644,-0.070348\\Version=ES64L-G09RevE.01\HF=-153.6139
 604\RMSD=9.777e-09\RMSF=1.983e-02\ZeroPoint=0.0488271\Thermal=0.052573
 4\Dipole=-1.5841114,0.5518851,0.2686242\DipoleDeriv=-0.9059724,0.13323
 68,0.0217569,0.4850992,-0.5128824,0.0446028,0.2430006,0.0496095,-0.351
 2741,0.3967922,-0.4516342,-0.2025007,-0.2644562,0.1561771,-0.1537306,-
 0.3230788,-0.2433979,0.0056576,-0.1757239,0.094704,0.121889,-0.2089071
 ,0.1719111,0.0249608,-0.0187138,0.0378304,-0.2010196,0.1825713,0.09072
 61,0.0021159,0.0076466,-0.0883585,0.0957376,0.0564206,0.1730613,0.0813
 418,0.3835287,0.0863779,0.0866406,-0.1094766,0.2205328,-0.0437442,-0.0
 035367,0.0101262,0.1299729,0.0543928,0.0225212,-0.0236343,0.0266399,0.
 0379562,0.0298804,0.0135737,-0.0224587,0.1664701,0.0644112,0.0240681,-
 0.0062674,0.0634543,0.0146639,0.0022932,0.0323344,-0.0047708,0.1688512
 \Polar=51.2589521,4.2489534,27.9825235,1.9327313,0.2532444,19.9456059\
 PG=C01 [X(C2H4O1)]\NImag=1\\0.39613157,-0.18419893,0.17837903,-0.01074
 695,0.00007151,0.03885457,-0.27754829,0.13627989,0.02226725,0.48146462
 ,0.11561631,-0.16605700,-0.00732575,-0.03266098,0.49372804,-0.02609775
 ,0.02416240,-0.05437961,0.00998657,-0.06459596,0.31013131,-0.06332384,
 -0.00747530,-0.00826600,-0.21431971,-0.05631680,0.01437618,0.59862642,
 0.03045176,0.02051168,-0.00158274,-0.07212951,-0.12870250,0.02605256,-
 0.05721586,0.63592470,0.01295321,-0.00829302,0.01129329,-0.00495221,0.
 03482842,-0.01090658,-0.01049830,-0.08817024,0.11786510,-0.00767315,0.
 03052763,-0.01178152,-0.04217327,-0.00897649,0.00779412,0.00263097,-0.
 02307417,0.01269357,0.05228583,0.02671266,-0.02224578,0.00873958,-0.02
 023435,-0.20054470,0.09810971,-0.00679979,-0.01618937,0.00826335,0.002
 56699,0.24248443,-0.00547778,-0.00126411,0.00866497,0.01101332,0.10552
 130,-0.08385754,-0.00559476,-0.00711554,-0.00524786,-0.00597782,-0.114
 22950,0.08942143,-0.04542089,0.02602509,0.01118889,0.05352477,-0.01399
 382,-0.01969986,-0.00536559,0.00003849,0.00619213,-0.00029330,0.001687
 38,0.00699095,-0.00283664,0.01295063,-0.01078237,0.00283170,-0.0019844
 6,-0.00153946,-0.09343139,0.00144574,-0.01329317,-0.00687361,0.0010710
 5,-0.00282472,0.01768242,-0.01492717,0.02644301,0.02389712,-0.01293560
 ,-0.00080395,-0.01660954,-0.05034508,-0.17776282,0.00255154,-0.0052514
 2,-0.03682209,-0.00006859,-0.00177954,-0.01234243,-0.00910920,0.069366
 26,0.22088332,0.00357437,0.00392965,-0.00042870,0.00573459,-0.02481135
 ,0.00973729,-0.05454652,-0.01597103,-0.00296839,-0.00471173,-0.0030316
 0,-0.00125858,0.00056612,0.00023889,-0.00081025,0.04349838,-0.00027607
 ,0.00170278,-0.00220106,0.00563006,-0.00923944,0.00864472,-0.01458730,
 -0.34706352,0.05304669,-0.00325788,-0.00029517,-0.00139206,-0.00003270
 ,0.00083236,0.00049258,0.01803959,0.35883325,-0.00054805,-0.00037977,-
 0.00655180,-0.00952806,-0.01119258,0.01738697,0.00742601,0.06551981,-0
 .04949704,-0.00334331,0.00228033,0.00271119,0.00566155,0.00521197,0.00
 294360,-0.00162844,-0.06180688,0.02745674,-0.00573978,-0.00508804,-0.0
 0223297,-0.00668272,0.02114312,0.00390345,-0.26370174,0.13790032,-0.01
 342002,-0.00006534,-0.00090130,0.00030467,-0.00017448,0.00120533,0.000
 14892,0.00588477,-0.00551571,0.00196030,0.27047928,-0.00125637,-0.0015
 0834,-0.00053325,-0.01490065,0.01235507,0.00105796,0.14094932,-0.15118
 781,0.00719840,0.00114286,-0.00038468,0.00079748,0.00120273,0.00116436
 ,0.00045280,0.02160584,-0.00477026,0.00036711,-0.14874373,0.14433167,0
 .00602021,-0.00136142,0.00292252,-0.01217733,-0.00689035,-0.00061173,0
 .00000533,0.01054758,-0.02668483,0.00068354,-0.00138394,0.00065024,-0.
 00122446,0.00521264,0.00390437,-0.00264293,0.00321600,0.00555034,0.009
 33564,-0.00934051,0.01426909\\0.02270145,-0.02425562,-0.00686247,-0.03
 200350,0.05016320,0.03725573,-0.01836225,-0.02843328,-0.01964305,0.003
 40786,-0.00559359,-0.00394983,0.02239453,0.00712804,-0.00497930,-0.000
 44196,0.00144853,-0.00002655,0.00230388,-0.00045728,-0.00179454\\\@


 "A LITTLE BIT GOES A LONG WAY"
 R.S. MULLIKEN AS QUOTED BY K. RUEDENBERG
 Job cpu time:       0 days  0 hours  2 minutes 34.9 seconds.
 File lengths (MBytes):  RWF=      6 Int=      0 D2E=      0 Chk=      1 Scr=      1
 Normal termination of Gaussian 09 at Mon Aug 16 22:45:42 2021.
