comment:                                                                
Freq      RM062X                                                      CC-pVDZ             
Number of atoms                            I                7
Info1-9                                    I   N=           9
          21          20           0           0           0         101
           6          18        -502
Full Title                                 C   N=           1
comment:    
Route                                      C   N=           8
#P m062x/cc-pvdz # SCF=(xqc) # Freq=() # IOp(7/33=1) # int=u
ltrafine # fchk NoSym guess=mix     
Charge                                     I                0
Multiplicity                               I                1
Number of electrons                        I               24
Number of alpha electrons                  I               12
Number of beta electrons                   I               12
Number of basis functions                  I               62
Number of independent functions            I               62
Number of point charges in /Mol/           I                0
Number of translation vectors              I                0
Atomic numbers                             I   N=           7
           8           6           6           1           1           1
           1
Nuclear charges                            R   N=           7
  8.00000000E+00  6.00000000E+00  6.00000000E+00  1.00000000E+00  1.00000000E+00
  1.00000000E+00  1.00000000E+00
Current cartesian coordinates              R   N=          21
  2.17854243E+00 -4.58700783E-01 -3.02639640E-02  7.02581279E-02  8.31254621E-01
 -2.36593712E-03 -2.40305701E+00 -4.22695831E-01 -6.25990679E-02  5.78501861E-02
  2.68994956E+00 -1.00168146E+00 -2.16207346E-01  1.46401241E+00  2.07667674E+00
 -2.51532942E+00 -2.44854839E+00  3.11772687E-01 -4.12513987E+00  7.09864283E-01
 -1.32938454E-01
Number of symbols in /Mol/                 I                0
Force Field                                I                0
Atom Types                                 C   N=           7
                                                            
                        
Int Atom Types                             I   N=           7
           0           0           0           0           0           0
           0
MM charges                                 R   N=           7
  0.00000000E+00  0.00000000E+00  0.00000000E+00  0.00000000E+00  0.00000000E+00
  0.00000000E+00  0.00000000E+00
Integer atomic weights                     I   N=           7
          16          12          12           1           1           1
           1
Real atomic weights                        R   N=           7
  1.59949146E+01  1.20000000E+01  1.20000000E+01  1.00782504E+00  1.00782504E+00
  1.00782504E+00  1.00782504E+00
Atom fragment info                         I   N=           7
           0           0           0           0           0           0
           0
Atom residue num                           I   N=           7
           0           0           0           0           0           0
           0
Nuclear spins                              I   N=           7
           0           0           0           1           1           1
           1
Nuclear ZEff                               R   N=           7
 -5.60000000E+00 -3.60000000E+00 -3.60000000E+00 -1.00000000E+00 -1.00000000E+00
 -1.00000000E+00 -1.00000000E+00
Nuclear ZNuc                               R   N=           7
  8.00000000E+00  6.00000000E+00  6.00000000E+00  1.00000000E+00  1.00000000E+00
  1.00000000E+00  1.00000000E+00
Nuclear QMom                               R   N=           7
  0.00000000E+00  0.00000000E+00  0.00000000E+00  0.00000000E+00  0.00000000E+00
  0.00000000E+00  0.00000000E+00
Nuclear GFac                               R   N=           7
  0.00000000E+00  0.00000000E+00  0.00000000E+00  2.79284600E+00  2.79284600E+00
  2.79284600E+00  2.79284600E+00
MicOpt                                     I   N=           7
          -1          -1          -1          -1          -1          -1
          -1
Number of residues                         I                0
Number of secondary structures             I                0
Number of contracted shells                I               30
Number of primitive shells                 I               80
Pure/Cartesian d shells                    I                0
Pure/Cartesian f shells                    I                0
Highest angular momentum                   I                2
Largest degree of contraction              I                7
Shell types                                I   N=          30
           0           0           0           1           1          -2
           0           0           0           1           1          -2
           0           0           0           1           1          -2
           0           0           1           0           0           1
           0           0           1           0           0           1
Number of primitives per shell             I   N=          30
           7           7           1           3           1           1
           7           7           1           3           1           1
           7           7           1           3           1           1
           3           1           1           3           1           1
           3           1           1           3           1           1
Shell to atom map                          I   N=          30
           1           1           1           1           1           1
           2           2           2           2           2           2
           3           3           3           3           3           3
           4           4           4           5           5           5
           6           6           6           7           7           7
Primitive exponents                        R   N=          80
  1.17200000E+04  1.75900000E+03  4.00800000E+02  1.13700000E+02  3.70300000E+01
  1.32700000E+01  5.02500000E+00  1.17200000E+04  4.00800000E+02  1.13700000E+02
  3.70300000E+01  1.32700000E+01  5.02500000E+00  1.01300000E+00  3.02300000E-01
  1.77000000E+01  3.85400000E+00  1.04600000E+00  2.75300000E-01  1.18500000E+00
  6.66500000E+03  1.00000000E+03  2.28000000E+02  6.47100000E+01  2.10600000E+01
  7.49500000E+00  2.79700000E+00  6.66500000E+03  2.28000000E+02  6.47100000E+01
  2.10600000E+01  7.49500000E+00  2.79700000E+00  5.21500000E-01  1.59600000E-01
  9.43900000E+00  2.00200000E+00  5.45600000E-01  1.51700000E-01  5.50000000E-01
  6.66500000E+03  1.00000000E+03  2.28000000E+02  6.47100000E+01  2.10600000E+01
  7.49500000E+00  2.79700000E+00  6.66500000E+03  2.28000000E+02  6.47100000E+01
  2.10600000E+01  7.49500000E+00  2.79700000E+00  5.21500000E-01  1.59600000E-01
  9.43900000E+00  2.00200000E+00  5.45600000E-01  1.51700000E-01  5.50000000E-01
  1.30100000E+01  1.96200000E+00  4.44600000E-01  1.22000000E-01  7.27000000E-01
  1.30100000E+01  1.96200000E+00  4.44600000E-01  1.22000000E-01  7.27000000E-01
  1.30100000E+01  1.96200000E+00  4.44600000E-01  1.22000000E-01  7.27000000E-01
  1.30100000E+01  1.96200000E+00  4.44600000E-01  1.22000000E-01  7.27000000E-01
Contraction coefficients                   R   N=          80
  7.11864434E-04  5.48520199E-03  2.79099296E-02  1.05133208E-01  2.84002490E-01
  4.51673946E-01  2.73208126E-01  7.69030046E-06  3.13484579E-04 -2.96614853E-03
 -1.08753543E-02 -1.20753817E-01 -1.06275264E-01  1.09597548E+00  1.00000000E+00
  6.26791663E-02  3.33536566E-01  7.41239642E-01  1.00000000E+00  1.00000000E+00
  6.93516317E-04  5.34150243E-03  2.71366714E-02  1.01992385E-01  2.75508636E-01
  4.51086433E-01  2.87565745E-01  7.73354740E-06  2.78072137E-04 -2.57875654E-03
 -8.95087684E-03 -1.06058855E-01 -1.31517686E-01  1.09948660E+00  1.00000000E+00
  5.69792516E-02  3.13207212E-01  7.60376742E-01  1.00000000E+00  1.00000000E+00
  6.93516317E-04  5.34150243E-03  2.71366714E-02  1.01992385E-01  2.75508636E-01
  4.51086433E-01  2.87565745E-01  7.73354740E-06  2.78072137E-04 -2.57875654E-03
 -8.95087684E-03 -1.06058855E-01 -1.31517686E-01  1.09948660E+00  1.00000000E+00
  5.69792516E-02  3.13207212E-01  7.60376742E-01  1.00000000E+00  1.00000000E+00
  3.34987264E-02  2.34800801E-01  8.13682958E-01  1.00000000E+00  1.00000000E+00
  3.34987264E-02  2.34800801E-01  8.13682958E-01  1.00000000E+00  1.00000000E+00
  3.34987264E-02  2.34800801E-01  8.13682958E-01  1.00000000E+00  1.00000000E+00
  3.34987264E-02  2.34800801E-01  8.13682958E-01  1.00000000E+00  1.00000000E+00
Coordinates of each shell                  R   N=          90
  2.17854243E+00 -4.58700783E-01 -3.02639640E-02  2.17854243E+00 -4.58700783E-01
 -3.02639640E-02  2.17854243E+00 -4.58700783E-01 -3.02639640E-02  2.17854243E+00
 -4.58700783E-01 -3.02639640E-02  2.17854243E+00 -4.58700783E-01 -3.02639640E-02
  2.17854243E+00 -4.58700783E-01 -3.02639640E-02  7.02581279E-02  8.31254621E-01
 -2.36593712E-03  7.02581279E-02  8.31254621E-01 -2.36593712E-03  7.02581279E-02
  8.31254621E-01 -2.36593712E-03  7.02581279E-02  8.31254621E-01 -2.36593712E-03
  7.02581279E-02  8.31254621E-01 -2.36593712E-03  7.02581279E-02  8.31254621E-01
 -2.36593712E-03 -2.40305701E+00 -4.22695831E-01 -6.25990679E-02 -2.40305701E+00
 -4.22695831E-01 -6.25990679E-02 -2.40305701E+00 -4.22695831E-01 -6.25990679E-02
 -2.40305701E+00 -4.22695831E-01 -6.25990679E-02 -2.40305701E+00 -4.22695831E-01
 -6.25990679E-02 -2.40305701E+00 -4.22695831E-01 -6.25990679E-02  5.78501861E-02
  2.68994956E+00 -1.00168146E+00  5.78501861E-02  2.68994956E+00 -1.00168146E+00
  5.78501861E-02  2.68994956E+00 -1.00168146E+00 -2.16207346E-01  1.46401241E+00
  2.07667674E+00 -2.16207346E-01  1.46401241E+00  2.07667674E+00 -2.16207346E-01
  1.46401241E+00  2.07667674E+00 -2.51532942E+00 -2.44854839E+00  3.11772687E-01
 -2.51532942E+00 -2.44854839E+00  3.11772687E-01 -2.51532942E+00 -2.44854839E+00
  3.11772687E-01 -4.12513987E+00  7.09864283E-01 -1.32938454E-01 -4.12513987E+00
  7.09864283E-01 -1.32938454E-01 -4.12513987E+00  7.09864283E-01 -1.32938454E-01
Constraint Structure                       R   N=          21
  2.17854243E+00 -4.58700783E-01 -3.02639640E-02  7.02581279E-02  8.31254621E-01
 -2.36593712E-03 -2.40305701E+00 -4.22695831E-01 -6.25990679E-02  5.78501861E-02
  2.68994956E+00 -1.00168146E+00 -2.16207346E-01  1.46401241E+00  2.07667674E+00
 -2.51532942E+00 -2.44854839E+00  3.11772687E-01 -4.12513987E+00  7.09864283E-01
 -1.32938454E-01
Num ILSW                                   I              100
ILSW                                       I   N=         100
           0           0           0           0           2           0
           0           0           3           0        4336          -1
           5           0           0           0           2           0
           0           0           0           0           1           0
           1           1           0           0           0           0
           0           0      100000           0          -1           0
           0           0           0           0           0           0
           0           0           0           1           0           0
           0           0           1           0           0           0
           0           0           4          41           0           0
           0           0          55           0           0           0
           0           0           0           7           0           0
           0           0           0           0           0           0
           0           0           0           0           0           0
           0           0           0           0           0           0
           0           0           0           0           0           0
           0           0           0           0
Num RLSW                                   I               41
RLSW                                       R   N=          41
  1.00000000E+00  1.00000000E+00  1.00000000E+00  1.00000000E+00  5.40000000E-01
  0.00000000E+00  0.00000000E+00  1.00000000E+00  0.00000000E+00  0.00000000E+00
  0.00000000E+00  0.00000000E+00  1.00000000E+00  0.00000000E+00  0.00000000E+00
  0.00000000E+00  0.00000000E+00  1.00000000E+00  0.00000000E+00  0.00000000E+00
  0.00000000E+00  0.00000000E+00  1.00000000E+00  0.00000000E+00  0.00000000E+00
  0.00000000E+00  0.00000000E+00  1.00000000E+00  0.00000000E+00  0.00000000E+00
  0.00000000E+00  0.00000000E+00  1.00000000E+00  0.00000000E+00  0.00000000E+00
  0.00000000E+00  0.00000000E+00  0.00000000E+00  1.00000000E+00  1.00000000E+00
  0.00000000E+00
MxBond                                     I                4
NBond                                      I   N=           7
           1           4           3           1           1           1
           1
IBond                                      I   N=          28
           2           0           0           0           1           3
           4           5           2           6           7           0
           2           0           0           0           2           0
           0           0           3           0           0           0
           3           0           0           0
RBond                                      R   N=          28
  1.00000000E+00  0.00000000E+00  0.00000000E+00  0.00000000E+00  1.00000000E+00
  1.00000000E+00  1.00000000E+00  1.00000000E+00  1.00000000E+00  1.00000000E+00
  1.00000000E+00  0.00000000E+00  1.00000000E+00  0.00000000E+00  0.00000000E+00
  0.00000000E+00  1.00000000E+00  0.00000000E+00  0.00000000E+00  0.00000000E+00
  1.00000000E+00  0.00000000E+00  0.00000000E+00  0.00000000E+00  1.00000000E+00
  0.00000000E+00  0.00000000E+00  0.00000000E+00
Virial Ratio                               R      2.006747056496791E+00
SCF Energy                                 R     -1.536139604431498E+02
Total Energy                               R     -1.536139604431498E+02
RMS Force                                  R      1.982959416156841E-02
RMS Density                                R      9.776819871407679E-09
NImag                                      I                1
Job Status                                 I                1
Nuclear derivative order                   I                2
External E-field                           R   N=          35
  0.00000000E+00  0.00000000E+00  0.00000000E+00  0.00000000E+00  0.00000000E+00
  0.00000000E+00  0.00000000E+00  0.00000000E+00  0.00000000E+00  0.00000000E+00
  0.00000000E+00  0.00000000E+00  0.00000000E+00  0.00000000E+00  0.00000000E+00
  0.00000000E+00  0.00000000E+00  0.00000000E+00  0.00000000E+00  0.00000000E+00
  0.00000000E+00  0.00000000E+00  0.00000000E+00  0.00000000E+00  0.00000000E+00
  0.00000000E+00  0.00000000E+00  0.00000000E+00  0.00000000E+00  0.00000000E+00
  0.00000000E+00  0.00000000E+00  0.00000000E+00  0.00000000E+00  0.00000000E+00
IOpCl                                      I                0
IROHF                                      I                0
Alpha Orbital Energies                     R   N=          62
 -1.95657132E+01 -1.06228892E+01 -1.06212737E+01 -1.07912421E+00 -8.58726816E-01
 -6.86661996E-01 -5.58659675E-01 -5.23695703E-01 -5.00696463E-01 -4.40924810E-01
 -2.89312502E-01 -2.72949446E-01 -8.86121075E-02  9.39359276E-02  1.24168429E-01
  1.42581158E-01  1.71694923E-01  2.65585163E-01  2.84838307E-01  4.51461372E-01
  5.02713724E-01  5.22319017E-01  5.46153363E-01  6.03393799E-01  6.47613126E-01
  6.68313841E-01  6.83245263E-01  6.85970052E-01  7.24801600E-01  8.77759050E-01
  9.13095326E-01  9.58647750E-01  1.02075872E+00  1.13345197E+00  1.17765341E+00
  1.20386649E+00  1.24164630E+00  1.41588970E+00  1.45852253E+00  1.49918778E+00
  1.56220500E+00  1.57160496E+00  1.63902756E+00  1.66682663E+00  1.73752221E+00
  1.77540188E+00  1.82181816E+00  1.84412004E+00  1.89983672E+00  1.99258816E+00
  2.09404077E+00  2.16558179E+00  2.19733393E+00  2.31249729E+00  2.38797497E+00
  2.53865219E+00  2.64796315E+00  2.82404285E+00  2.87007740E+00  3.19040129E+00
  3.31685087E+00  3.43740778E+00
Alpha MO coefficients                      R   N=        3844
  9.97101687E-01  1.86538618E-02 -1.03087292E-02 -1.48034305E-03  8.67199684E-04
  8.15003712E-05  2.59357949E-03 -1.44344498E-03 -2.70110839E-04 -1.15067347E-05
  1.81498031E-05 -4.54182646E-06 -2.95215681E-05  2.01843486E-05  1.77748884E-05
 -1.15459284E-04  5.77274964E-03  2.87534817E-04 -2.57167178E-05 -2.97290868E-05
  2.56274390E-03 -2.80975459E-03  9.82495207E-04  1.99022781E-04 -1.14463375E-04
 -5.34083909E-05 -2.78440204E-04  4.67012377E-04  1.47117679E-05 -6.37962427E-05
 -1.01792148E-03 -2.01318115E-04 -1.97517661E-04 -3.31730733E-05 -1.17916941E-03
  1.42398928E-03 -2.44085902E-04 -4.54007334E-05 -1.18427251E-04  1.03512429E-05
 -4.08468167E-04  9.34200344E-05 -2.66596040E-04  5.23282887E-04 -4.02169613E-04
  2.25039790E-04 -2.85680646E-05 -7.04401957E-04 -6.48016809E-04 -1.80466055E-04
  2.62267490E-04  9.99535622E-05  1.17799852E-04  6.54473769E-04  7.02348069E-06
 -1.07327569E-04  2.50982925E-05 -1.57103306E-04 -4.22973660E-04  5.22939500E-05
 -1.12399153E-04 -4.82681952E-06 -1.52820929E-05 -1.23447065E-04  1.16032854E-04
  1.10299785E-04  2.88094766E-05 -2.82760779E-05 -5.14852943E-05  4.31287543E-05
  1.21493884E-04 -3.41529645E-05  2.31949747E-06 -2.30844203E-06 -1.19089409E-04
  4.24386902E-05  1.43922911E-01  3.52276546E-03 -6.49681290E-04  3.43330748E-04
  3.96891052E-04  1.83016707E-04 -3.41751176E-04 -7.12588896E-04 -8.58662006E-04
  5.69332431E-04  8.91374238E-05 -1.49857784E-05 -6.14496873E-04 -6.65818444E-04
  9.86487587E-01  2.42804002E-02 -1.09129416E-02 -8.27484717E-04 -2.25120933E-04
  6.54059096E-04 -7.62220063E-04 -3.71007994E-04 -3.94738152E-04 -9.59788091E-04
  1.43428398E-04 -2.93087252E-04 -4.98807487E-04 -6.45513389E-04 -2.82081489E-04
  5.25936317E-04 -4.34179910E-05  1.87890392E-04 -3.49584418E-05  2.44006575E-05
  1.60392513E-03 -4.29670838E-04 -1.47943688E-04  1.46026775E-04 -1.66991371E-03
  2.00411664E-03 -1.04680840E-04 -1.72911985E-03  3.86455103E-04 -1.68619821E-03
  1.86319003E-03 -1.52510828E-03  9.85614386E-04  5.62154293E-06 -6.37555017E-05
  3.75232971E-04 -9.10425446E-04  1.30043920E-04  9.52531464E-06 -3.24204211E-05
  6.80312660E-04 -1.02684270E-03  1.25031252E-04  3.46517452E-04  1.84713592E-05
  1.21945935E-05 -2.16459501E-04  4.92251581E-04  9.86508907E-01  2.49190149E-02
 -1.49453995E-02 -4.60343608E-04  5.30510155E-04  7.68947697E-04  4.23499223E-03
  5.86081149E-04 -7.81244189E-04  4.73302305E-05 -2.28820679E-04 -2.11892316E-04
 -8.85722396E-05 -2.59075852E-04 -1.43925807E-01 -4.03018863E-03  7.19779987E-03
 -2.67086862E-04 -1.78899906E-04 -6.61330202E-05  2.56859991E-03  1.81904967E-03
 -6.22200213E-06  4.39275529E-04 -6.14834107E-05 -1.93952572E-05 -5.13070201E-04
 -7.33098496E-04 -7.46452098E-04  1.59557835E-03 -2.47193254E-04  1.28782068E-03
 -6.56156540E-04 -3.73272318E-04  1.84806240E-03 -1.73248135E-04  4.50018502E-04
  1.36121052E-03 -1.10267368E-04  4.33899951E-04 -2.21444518E-04  2.42961977E-04
 -5.43993071E-05 -2.25908267E-04 -9.92705184E-06  5.35085689E-05 -3.25161644E-04
  1.44042844E-05 -1.81648396E-01  3.82469132E-01  3.72682040E-01 -1.11575443E-01
  6.50870729E-02  3.54103589E-03 -3.19958937E-02  1.89880045E-02  3.03097998E-03
 -5.45879466E-03 -6.40477894E-04  7.91862775E-04  5.87531670E-03 -1.05003072E-02
 -1.15588150E-01  2.34516000E-01  1.05299168E-01  1.12496676E-01 -8.34687574E-02
  8.69252724E-03  2.16362205E-02 -1.67061566E-02 -9.36977413E-04 -1.47321656E-02
  1.73193637E-03  6.05262599E-04  1.34234959E-02 -2.11948398E-02 -3.11054192E-02
  6.26863312E-02  4.07599569E-02  4.14971798E-02  1.24411698E-02  3.46850328E-03
  1.22803681E-02  7.92794784E-03  9.60573845E-04 -2.22918194E-03  1.64221852E-03
  9.47840036E-04  7.78955313E-03  4.06527513E-03  5.35300657E-02  2.01217274E-03
  2.08902899E-03 -9.25444800E-03  5.44961431E-03  6.74485678E-02  2.63859482E-03
  2.17303324E-03 -3.74528147E-03 -1.12407198E-02  1.95562876E-02  1.98218476E-03
  5.76232496E-04  3.81778273E-03 -9.09400356E-04  1.26789136E-02  7.67247747E-04
  2.77493144E-03 -2.83463678E-04  2.86383134E-04  8.18997115E-02 -1.77977549E-01
 -1.91364722E-01 -6.53769290E-03 -1.27759610E-02  4.20100858E-03 -1.11733205E-02
  4.98314364E-03  1.96103355E-03 -2.11857485E-04 -5.86249237E-04  1.16347164E-04
  1.31548540E-03  1.29329366E-03 -8.56050456E-02  1.79963903E-01  1.09260010E-01
 -1.97651458E-01  1.67990162E-02  2.29750855E-02 -6.70895420E-02  7.23621570E-03
  3.99084222E-03 -2.07672563E-03 -2.50839671E-03  2.15792195E-04  3.54474512E-03
  1.80509829E-02 -1.59334747E-01  3.27622882E-01  2.31278356E-01  5.03625746E-02
  4.84401420E-02  1.73011604E-02  6.87764619E-03  1.40514967E-02  7.07495045E-03
  8.55459521E-04  3.58765194E-03  3.94536666E-03  8.64851113E-04  9.86324805E-03
  7.92396846E-02  4.70956013E-03 -2.60918251E-03 -7.95691187E-03  5.60615658E-03
  1.09966896E-01  7.76798986E-03 -4.12325353E-03 -3.90686426E-03 -1.27050650E-02
  1.28556004E-01  6.62227764E-03  1.06853859E-03  1.78486581E-02 -2.88829136E-03
  1.46277563E-01  7.52001085E-03  1.71567427E-02 -1.10626114E-02  8.83454812E-04
  6.04321971E-02 -1.36603513E-01 -1.53001006E-01 -3.60975993E-02  6.95449718E-02
  1.24700514E-02 -3.59069771E-02  4.34958315E-02  7.51388736E-03 -2.10894634E-03
 -1.39310231E-03  8.19966236E-04 -1.44847322E-03 -5.32108283E-03 -1.06539827E-01
  2.46800090E-01  1.21185557E-01 -3.39442083E-02  1.67499698E-01  4.02392839E-02
 -1.86518066E-02  8.28576020E-02  8.49710111E-03  1.09523569E-02 -1.03048486E-03
  1.89022795E-03 -5.12776271E-03 -1.01025056E-03  9.92102982E-02 -2.14730792E-01
 -1.52644205E-01  1.45169964E-01  1.32207692E-01 -2.83670625E-03  6.49544523E-02
  4.12457176E-02  1.49997097E-03 -5.47268680E-03  2.15310802E-03  1.67049451E-03
  1.56677539E-03  1.07698753E-02  2.03165797E-01  2.74774088E-02 -1.82336272E-03
 -1.47380397E-02  1.31652824E-02  1.80364552E-01  3.00466578E-02  6.66107835E-04
 -4.79892083E-05 -1.72126800E-02 -2.10728902E-01 -3.93594719E-02  1.78437239E-03
 -2.09200303E-02  4.21783605E-03 -1.56796010E-01 -2.61979650E-02 -1.22965136E-02
  1.17449553E-02 -7.73526570E-04  2.89326898E-02 -5.83809745E-02 -1.08186173E-01
 -1.22256224E-01 -5.98832395E-02  7.28224956E-02 -6.93914636E-02 -3.04368096E-02
  4.13738521E-02 -2.17211367E-03 -4.96921766E-03  3.00287842E-03  8.10675043E-03
  4.87361788E-04 -1.47098085E-02  4.46063589E-02  1.82604719E-02 -6.73992719E-02
 -2.28384315E-01  1.62998387E-01 -2.74909989E-02 -8.74034432E-02  6.35575756E-02
  4.62708592E-03 -1.18182363E-03 -3.54789430E-03 -1.29029283E-02  8.12134127E-03
  7.85738228E-03 -1.01129440E-02 -1.77384714E-02  2.93115254E-01 -1.99767683E-01
  8.00825152E-02  9.51014628E-02 -7.63837301E-02  3.88601465E-02  2.86931782E-03
  8.18361730E-03  2.28974206E-03  5.21011977E-04  9.61623827E-03 -1.80739436E-01
 -5.19181872E-02  9.12687071E-04  1.08529580E-02 -5.21159869E-03  9.73396801E-02
  1.79269880E-02 -2.62830962E-03 -9.89445861E-03 -2.86751667E-03  1.36630439E-01
  2.97951912E-02  7.61873685E-03  6.22515827E-03 -6.44765403E-04 -2.91742694E-01
 -9.53090084E-02 -1.37739513E-02  7.79290011E-03  9.45669465E-04 -2.11732101E-02
  4.32977504E-02  7.97288312E-02  8.65723383E-02 -1.37098824E-02  1.91373622E-01
  4.94596106E-02 -1.04646523E-02  1.12431540E-01  3.47467044E-03 -1.20772739E-02
  7.86860660E-03 -3.08833891E-03  2.16676864E-03  3.27390801E-02 -8.06580695E-02
 -7.67551915E-02  1.31399216E-02  4.28018454E-02  3.70845873E-01  2.48695872E-02
  2.05980853E-02  1.48763892E-01  1.31350672E-02  3.24528300E-03 -2.23766455E-03
  9.37791553E-03 -5.03167090E-03  9.00144121E-03 -2.72215466E-02 -6.16126518E-03
 -1.64456665E-01  1.13609832E-01  1.26971949E-01 -5.02589956E-02  4.60699615E-02
  7.48228775E-02  5.14646417E-03  1.39242791E-02  1.37324610E-02  9.58599701E-04
 -7.28273519E-03 -1.60831516E-01 -5.52835667E-02  1.90971582E-03  1.27827147E-02
  3.89870847E-03  2.76674909E-01  1.05039176E-01 -2.93399446E-03 -7.31813370E-03
 -1.24075035E-02 -8.27481638E-02 -2.51941979E-02 -5.35803198E-03 -2.53276442E-03
  4.02813451E-03  1.45825709E-01  5.60268405E-02  5.83388828E-03 -3.63453617E-03
  3.26111407E-03 -3.10684336E-02  6.49232458E-02  1.14782302E-01  1.62273977E-02
 -1.99501613E-01 -2.92633052E-02  1.40745396E-02 -1.20615450E-01 -1.62369304E-02
  2.98493048E-03  1.80691222E-03 -1.22485752E-03  7.50551128E-03  9.75196694E-03
  9.39472320E-03 -2.03619877E-02 -3.13391660E-02 -2.67269335E-01 -2.17565760E-01
 -4.60618619E-02 -6.99473679E-02 -9.10835182E-02 -2.66115009E-02 -5.75076096E-03
 -2.09359378E-03  9.19610878E-04  5.89966710E-03 -5.48773970E-03 -8.84566041E-03
  2.66854332E-02  2.72557002E-02  1.72720934E-01  3.40863449E-01 -6.58013825E-02
  8.94886363E-02  1.43709193E-01 -2.82681350E-02 -3.91188505E-03  4.17500675E-04
  4.78366726E-03  1.31492074E-02  2.66812719E-03 -1.56079030E-01 -5.69385429E-02
 -4.19311796E-03  5.17097018E-03 -8.79348638E-03 -8.42367755E-02 -3.72571985E-02
 -8.73392645E-03 -6.12430186E-03  5.60437483E-03 -2.88634926E-01 -8.86294635E-02
  3.72210603E-03 -1.45947409E-02  2.46035796E-03  5.75957452E-02  2.63202032E-02
  7.12656469E-03  5.86620249E-03 -2.00804486E-03 -6.74665637E-02  1.41900255E-01
  2.58453301E-01  4.09636003E-01 -2.08905286E-01 -1.20002120E-03  2.62787996E-01
 -1.35851252E-01 -3.44522120E-03  1.09016236E-02  4.33016136E-04 -2.09497050E-04
 -1.12072475E-02  1.50035444E-02  3.20939243E-02 -9.58805244E-02 -5.70180611E-02
 -2.67170973E-01  2.39175197E-01 -7.68241790E-03 -2.04879157E-04  3.16608361E-02
  8.13194645E-03  4.33030229E-03 -5.24353006E-03 -4.07348797E-05 -9.68741164E-03
  1.36598239E-02 -4.04409911E-03  6.36684266E-03  2.91699166E-02  1.21443380E-01
 -1.04145606E-01  3.50397668E-02  5.03943761E-02  2.07228606E-02  9.50047193E-03
  6.38965551E-04 -3.57499830E-05 -1.32331175E-03 -1.74567286E-02  1.40415779E-02
  1.37966280E-01  9.00305092E-02 -1.02632333E-02 -3.42178909E-03  6.76473373E-03
  4.51205212E-02  3.67695383E-02 -7.94475924E-03  7.55134889E-03 -5.31041335E-03
  1.13297254E-01  9.10189685E-02  3.29890311E-03  3.92530982E-03 -3.67328804E-04
 -1.61118730E-01 -8.85970087E-02 -5.66277183E-03  3.31525450E-04  7.19107764E-04
 -1.11332580E-03  8.60695004E-03 -1.92837357E-02  2.88809222E-01  4.94490371E-01
 -1.22718656E-01  2.23497744E-01  3.69608705E-01 -9.07138907E-02 -3.34228102E-05
  3.30211405E-03 -8.35788675E-04 -1.26480428E-02 -7.09614572E-03  3.12725290E-03
  1.06413951E-02 -5.90113305E-02 -4.55059501E-02 -8.76524785E-02  1.48462097E-02
  1.02961350E-01  5.16829455E-02 -3.32810024E-02 -4.53889535E-03 -9.96120635E-03
  1.00032046E-02  5.50474127E-02  2.64795431E-02 -3.82053451E-02  8.36691557E-02
  3.05945205E-01  1.68602553E-01  6.84879894E-02  2.55647640E-02  1.00707087E-01
  7.52313023E-02  3.54573254E-02  4.02434538E-03  4.08527622E-03  4.26183860E-03
  5.22123422E-03 -2.56064164E-04 -1.90000548E-01 -1.87185066E-01 -2.28243394E-03
  7.59283461E-04 -3.28711013E-03 -1.61241735E-02 -2.29181203E-02 -6.65453904E-03
 -7.86753265E-03  1.93987929E-03 -2.36935312E-02 -7.70232613E-02 -3.18492661E-04
  8.40012092E-05  1.32425602E-04 -6.63926703E-02 -8.10482708E-02  6.53451835E-05
  5.63942200E-03  1.48773824E-04  2.03559722E-03 -8.85006217E-04 -3.14777808E-02
  6.48330815E-02  9.01643612E-02  4.95185220E-01  5.71328770E-02  6.85081339E-02
  3.86520881E-01  4.28716081E-04 -1.29561602E-02  7.76160466E-03 -3.22547781E-03
 -1.10898556E-03 -4.83253893E-03  9.04641203E-03  5.19415939E-02 -1.12576196E-02
 -2.07906443E-03 -1.12220288E-02  3.13229212E-02 -1.89443455E-02  1.11384246E-01
 -5.45396017E-03  5.45528486E-02 -1.81433842E-02  8.75578917E-03  6.19327198E-03
 -1.85935135E-02  5.31832477E-02  7.66067696E-02  6.58241845E-02 -1.56390821E-02
 -3.18017237E-01  1.85614627E-02  1.16709612E-02 -3.11829796E-01 -4.68753985E-03
 -4.84347784E-03 -9.33003809E-03  1.11682316E-03 -8.88293516E-05  4.04795244E-02
  6.47021533E-02 -3.34830904E-03 -2.81497173E-03 -3.12149264E-03 -1.40949875E-01
 -1.53058586E-01  1.20416417E-02  3.04209219E-03  3.66273354E-03 -5.53710512E-03
  6.85936958E-03  2.76679467E-03 -1.30278186E-03 -8.55745435E-03 -2.35003575E-02
 -4.02688092E-02  2.99001221E-04  1.31039706E-03 -9.54171382E-03 -3.89658405E-03
  1.01768701E-02  1.01434709E-02 -2.10130169E-02  5.11947321E-02  2.58939697E-01
 -1.12049192E-02  4.54488303E-02  2.31258712E-01 -1.76671756E-03 -3.96025041E-03
  6.05055173E-04  9.23051692E-05 -1.18517405E-03 -5.73944689E-03  1.48979968E-02
  7.34610238E-03 -1.66536967E-02 -2.01906560E-02 -1.28220688E-01 -7.83965054E-04
 -2.94564046E-02 -2.57680102E-02 -2.06591120E-02  7.95607112E-04 -3.44825594E-02
  5.29812808E-03 -2.24266961E-04 -7.77915677E-03  1.59821623E-02  5.08873990E-02
  5.00258916E-02  8.65364475E-02  4.49985633E-01  4.42157289E-02  1.17238670E-01
  4.90868903E-01 -1.92182694E-04 -1.02629589E-02 -7.73163037E-03  1.58688336E-04
 -7.60913094E-05  1.50502925E-01  1.77852682E-01 -9.20770900E-04 -3.96185500E-03
 -5.01244296E-03 -3.07762904E-01 -3.77463051E-01 -6.00329237E-03 -5.34712221E-03
  5.79134469E-03  1.13083046E-02  8.44409099E-03  1.65303244E-03  3.44312189E-03
  1.64057572E-02  2.49160248E-03 -1.97421868E-02  1.33421403E-03  2.67501174E-03
  1.66209906E-02 -1.08084029E-02  3.04980731E-02  2.40939279E-02 -3.86026565E-02
 -8.61722936E-02 -5.34389556E-02 -2.54942520E-02 -1.33046332E-01 -8.67945448E-02
 -1.33925768E-03 -1.58168198E-03  1.28933838E-03 -8.02924001E-04 -1.88323612E-03
 -7.03006113E-02  5.66287875E-02  1.42712905E+00 -1.71602247E-02  1.98966894E-01
  1.53292538E-01 -9.50938299E-02  3.89301091E-01  3.83083082E-01 -5.69546179E-03
 -8.71782236E-03  5.43444326E-03  3.01491057E-03 -1.12456804E-02 -5.62797739E-02
  9.56300668E-02  7.96376712E-01 -1.68187849E-01  2.58415714E-02  3.98099390E-04
 -5.35032018E-01 -6.34478994E-03 -3.75895073E-02 -1.11537767E-02  4.60299922E-03