 Entering Gaussian System, Link 0=g09
 Input=run.inp
 Output=run.out
 Initial command:
 /soft/gaussian/09-e.01/g09/l1.exe "/scratch/kmoore/Gau-10990.inp" -scrdir="/scratch/kmoore/"
 Entering Link 1 = /soft/gaussian/09-e.01/g09/l1.exe PID=     10991.
  
 Copyright (c) 1988,1990,1992,1993,1995,1998,2003,2009,2015,
            Gaussian, Inc.  All Rights Reserved.
  
 This is part of the Gaussian(R) 09 program.  It is based on
 the Gaussian(R) 03 system (copyright 2003, Gaussian, Inc.),
 the Gaussian(R) 98 system (copyright 1998, Gaussian, Inc.),
 the Gaussian(R) 94 system (copyright 1995, Gaussian, Inc.),
 the Gaussian 92(TM) system (copyright 1992, Gaussian, Inc.),
 the Gaussian 90(TM) system (copyright 1990, Gaussian, Inc.),
 the Gaussian 88(TM) system (copyright 1988, Gaussian, Inc.),
 the Gaussian 86(TM) system (copyright 1986, Carnegie Mellon
 University), and the Gaussian 82(TM) system (copyright 1983,
 Carnegie Mellon University). Gaussian is a federally registered
 trademark of Gaussian, Inc.
  
 This software contains proprietary and confidential information,
 including trade secrets, belonging to Gaussian, Inc.
  
 This software is provided under written license and may be
 used, copied, transmitted, or stored only in accord with that
 written license.
  
 The following legend is applicable only to US Government
 contracts under FAR:
  
                    RESTRICTED RIGHTS LEGEND
  
 Use, reproduction and disclosure by the US Government is
 subject to restrictions as set forth in subparagraphs (a)
 and (c) of the Commercial Computer Software - Restricted
 Rights clause in FAR 52.227-19.
  
 Gaussian, Inc.
 340 Quinnipiac St., Bldg. 40, Wallingford CT 06492
  
  
 ---------------------------------------------------------------
 Warning -- This program may not be used in any manner that
 competes with the business of Gaussian, Inc. or will provide
 assistance to any competitor of Gaussian, Inc.  The licensee
 of this program is prohibited from giving any competitor of
 Gaussian, Inc. access to this program.  By using this program,
 the user acknowledges that Gaussian, Inc. is engaged in the
 business of creating and licensing software in the field of
 computational chemistry and represents and warrants to the
 licensee that it is not a competitor of Gaussian, Inc. and that
 it will not use this program in any manner prohibited above.
 ---------------------------------------------------------------
  

 Cite this work as:
 Gaussian 09, Revision E.01,
 M. J. Frisch, G. W. Trucks, H. B. Schlegel, G. E. Scuseria, 
 M. A. Robb, J. R. Cheeseman, G. Scalmani, V. Barone, B. Mennucci, 
 G. A. Petersson, H. Nakatsuji, M. Caricato, X. Li, H. P. Hratchian, 
 A. F. Izmaylov, J. Bloino, G. Zheng, J. L. Sonnenberg, M. Hada, 
 M. Ehara, K. Toyota, R. Fukuda, J. Hasegawa, M. Ishida, T. Nakajima, 
 Y. Honda, O. Kitao, H. Nakai, T. Vreven, J. A. Montgomery, Jr., 
 J. E. Peralta, F. Ogliaro, M. Bearpark, J. J. Heyd, E. Brothers, 
 K. N. Kudin, V. N. Staroverov, T. Keith, R. Kobayashi, J. Normand, 
 K. Raghavachari, A. Rendell, J. C. Burant, S. S. Iyengar, J. Tomasi, 
 M. Cossi, N. Rega, J. M. Millam, M. Klene, J. E. Knox, J. B. Cross, 
 V. Bakken, C. Adamo, J. Jaramillo, R. Gomperts, R. E. Stratmann, 
 O. Yazyev, A. J. Austin, R. Cammi, C. Pomelli, J. W. Ochterski, 
 R. L. Martin, K. Morokuma, V. G. Zakrzewski, G. A. Voth, 
 P. Salvador, J. J. Dannenberg, S. Dapprich, A. D. Daniels, 
 O. Farkas, J. B. Foresman, J. V. Ortiz, J. Cioslowski, 
 and D. J. Fox, Gaussian, Inc., Wallingford CT, 2013.
 
 ******************************************
 Gaussian 09:  ES64L-G09RevE.01 30-Nov-2015
                16-Aug-2021 
 ******************************************
 %mem=1GB
 %NProcShared=10
 Will use up to   10 processors via shared memory.
 ----------------------------------------------------------------------
 #P m062x/cc-pvdz # SCF=(xqc) # Freq=() # IOp(7/33=1) # int=ultrafine #
  fchk NoSym guess=mix
 ----------------------------------------------------------------------
 1/10=4,30=1,38=1/1,3;
 2/12=2,15=1,17=6,18=5,40=1/2;
 3/5=16,11=2,16=1,25=1,30=1,71=2,74=-55,75=-5,140=1/1,2,3;
 4/13=-1/1;
 5/5=2,8=3,13=1,38=5,98=1/2,8;
 8/6=4,10=90,11=11/1;
 11/6=1,8=1,9=11,15=111,16=1,31=1/1,2,10;
 10/6=1,31=1/2;
 6/7=2,8=2,9=2,10=2,18=1,28=1/1;
 7/8=1,10=1,25=1,30=1,33=1/1,2,3,16;
 1/10=4,30=1/3;
 99//99;
 Leave Link    1 at Mon Aug 16 22:45:42 2021, MaxMem=   134217728 cpu:         0.3
 (Enter /soft/gaussian/09-e.01/g09/l101.exe)
 --------
 comment:
 --------
 Symbolic Z-matrix:
 Charge =  0 Multiplicity = 3
 O                     1.15284  -0.24273  -0.01602 
 C                     0.03718   0.43988  -0.00125 
 C                    -1.27164  -0.22368  -0.03313 
 H                     0.03061   1.42346  -0.53007 
 H                    -0.11441   0.77472   1.09893 
 H                    -1.33106  -1.29572   0.16498 
 H                    -2.18293   0.37564  -0.07035 
 
 NAtoms=      7 NQM=        7 NQMF=       0 NMMI=      0 NMMIF=      0
                NMic=       0 NMicF=      0.
                    Isotopes and Nuclear Properties:
 (Nuclear quadrupole moments (NQMom) in fm**2, nuclear magnetic moments (NMagM)
  in nuclear magnetons)

  Atom         1           2           3           4           5           6           7
 IAtWgt=          16          12          12           1           1           1           1
 AtmWgt=  15.9949146  12.0000000  12.0000000   1.0078250   1.0078250   1.0078250   1.0078250
 NucSpn=           0           0           0           1           1           1           1
 AtZEff=   0.0000000   0.0000000   0.0000000   0.0000000   0.0000000   0.0000000   0.0000000
 NQMom=    0.0000000   0.0000000   0.0000000   0.0000000   0.0000000   0.0000000   0.0000000
 NMagM=    0.0000000   0.0000000   0.0000000   2.7928460   2.7928460   2.7928460   2.7928460
 AtZNuc=   8.0000000   6.0000000   6.0000000   1.0000000   1.0000000   1.0000000   1.0000000
 Leave Link  101 at Mon Aug 16 22:45:42 2021, MaxMem=   134217728 cpu:         0.4
 (Enter /soft/gaussian/09-e.01/g09/l103.exe)

 GradGradGradGradGradGradGradGradGradGradGradGradGradGradGradGradGradGrad
 Berny optimization.
 Initialization pass.
 Trust Radius=3.00D-01 FncErr=1.00D-07 GrdErr=1.00D-07
 Number of steps in this run=      2 maximum allowed number of steps=      2.
 GradGradGradGradGradGradGradGradGradGradGradGradGradGradGradGradGradGrad

 Leave Link  103 at Mon Aug 16 22:45:42 2021, MaxMem=   134217728 cpu:         0.1
 (Enter /soft/gaussian/09-e.01/g09/l202.exe)
                          Input orientation:                          
 ---------------------------------------------------------------------
 Center     Atomic      Atomic             Coordinates (Angstroms)
 Number     Number       Type             X           Y           Z
 ---------------------------------------------------------------------
      1          8           0        1.152835   -0.242734   -0.016015
      2          6           0        0.037179    0.439881   -0.001252
      3          6           0       -1.271643   -0.223681   -0.033126
      4          1           0        0.030613    1.423460   -0.530067
      5          1           0       -0.114412    0.774722    1.098930
      6          1           0       -1.331055   -1.295716    0.164983
      7          1           0       -2.182930    0.375644   -0.070348
 ---------------------------------------------------------------------
                    Distance matrix (angstroms):
                    1          2          3          4          5
     1  O    0.000000
     2  C    1.308002   0.000000
     3  C    2.424613   1.467769   0.000000
     4  H    2.073604   1.116744   2.157752   0.000000
     5  H    1.970846   1.159956   1.901984   1.759410   0.000000
     6  H    2.703931   2.216302   1.091804   3.119480   2.576663
     7  H    3.393033   2.222113   1.091339   2.491793   2.409407
                    6          7
     6  H    0.000000
     7  H    1.890639   0.000000
 Symmetry turned off by external request.
 Stoichiometry    C2H4O(3)
 Framework group  C1[X(C2H4O)]
 Deg. of freedom    15
 Full point group                 C1      NOp   1
 Rotational constants (GHZ):     51.0692815     10.3494782      9.0850816
 Leave Link  202 at Mon Aug 16 22:45:42 2021, MaxMem=   134217728 cpu:         0.0
 (Enter /soft/gaussian/09-e.01/g09/l301.exe)
 Standard basis: CC-pVDZ (5D, 7F)
 Ernie: Thresh=  0.10000D-02 Tol=  0.10000D-05 Strict=F.
 Ernie:  6 primitive shells out of 86 were deleted.
    62 basis functions,   127 primitive gaussians,    65 cartesian basis functions
    13 alpha electrons       11 beta electrons
       nuclear repulsion energy        68.6652053033 Hartrees.
 IExCor= 4336 DFT=T Ex+Corr=M062X ExCW=0 ScaHFX=  0.540000
 ScaDFX=  1.000000  1.000000  1.000000  1.000000 ScalE2=  1.000000  1.000000
 IRadAn=      5 IRanWt=     -1 IRanGd=            0 ICorTp=0 IEmpDi=  4
 NAtoms=    7 NActive=    7 NUniq=    7 SFac= 1.00D+00 NAtFMM=   60 NAOKFM=F Big=F
 Integral buffers will be    131072 words long.
 Raffenetti 2 integral format.
 Two-electron integral symmetry is turned off.
 Leave Link  301 at Mon Aug 16 22:45:43 2021, MaxMem=   134217728 cpu:         0.4
 (Enter /soft/gaussian/09-e.01/g09/l302.exe)
 NPDir=0 NMtPBC=     1 NCelOv=     1 NCel=       1 NClECP=     1 NCelD=      1
         NCelK=      1 NCelE2=     1 NClLst=     1 CellRange=     0.0.
 One-electron integrals computed using PRISM.
 NBasis=    62 RedAO= T EigKep=  5.25D-03  NBF=    62
 NBsUse=    62 1.00D-06 EigRej= -1.00D+00 NBFU=    62
 Precomputing XC quadrature grid using
 IXCGrd= 4 IRadAn=           5 IRanWt=          -1 IRanGd=           0 AccXCQ= 0.00D+00.
 Generated NRdTot=       0 NPtTot=           0 NUsed=           0 NTot=          32
 NSgBfM=    65    65    65    65    65 MxSgAt=     7 MxSgA2=     7.
 Leave Link  302 at Mon Aug 16 22:45:43 2021, MaxMem=   134217728 cpu:         1.5
 (Enter /soft/gaussian/09-e.01/g09/l303.exe)
 DipDrv:  MaxL=1.
 Leave Link  303 at Mon Aug 16 22:45:43 2021, MaxMem=   134217728 cpu:         0.2
 (Enter /soft/gaussian/09-e.01/g09/l401.exe)
 ExpMin= 1.22D-01 ExpMax= 1.17D+04 ExpMxC= 4.01D+02 IAcc=3 IRadAn=         5 AccDes= 0.00D+00
 Harris functional with IExCor= 1009 and IRadAn=       5 diagonalized for initial guess.
 HarFok:  IExCor= 1009 AccDes= 0.00D+00 IRadAn=         5 IDoV= 1 UseB2=F ITyADJ=14
 ICtDFT=  3500011 ScaDFX=  1.000000  1.000000  1.000000  1.000000
 FoFCou: FMM=F IPFlag=           0 FMFlag=      100000 FMFlg1=           0
         NFxFlg=           0 DoJE=T BraDBF=F KetDBF=T FulRan=T
         wScrn=  0.000000 ICntrl=     500 IOpCl=  0 I1Cent=   200000004 NGrid=           0
         NMat0=    1 NMatS0=      1 NMatT0=    0 NMatD0=    1 NMtDS0=    0 NMtDT0=    0
 Symmetry not used in FoFCou.
 Harris En= -153.496480127955    
 JPrj=0 DoOrth=F DoCkMO=T.
 Mixing orbitals, IMix= 1 IMixAn=  0 NRI=1 NE=   13 Coef=  7.07106781D-01  7.07106781D-01
 Mixing orbitals, IMix= 1 IMixAn=  0 NRI=1 NE=   11 Coef= -7.07106781D-01  7.07106781D-01
 Initial guess <Sx>= 0.0000 <Sy>= 0.0000 <Sz>= 1.0000 <S**2>= 2.0000 S= 1.0000
 Leave Link  401 at Mon Aug 16 22:45:43 2021, MaxMem=   134217728 cpu:         2.4
 (Enter /soft/gaussian/09-e.01/g09/l502.exe)
 UHF open shell SCF:
 Using DIIS extrapolation, IDIIS=  1040.
 Two-electron integral symmetry not used.
 Keep R1 and R2 ints in memory in canonical form, NReq=4724777.
 IVT=       19671 IEndB=       19671 NGot=   134217728 MDV=   130381896
 LenX=   130381896 LenY=   130377230
 Requested convergence on RMS density matrix=1.00D-08 within  64 cycles.
 Requested convergence on MAX density matrix=1.00D-06.
 Requested convergence on             energy=1.00D-06.
 No special actions if energy rises.
 FoFCou: FMM=F IPFlag=           0 FMFlag=           0 FMFlg1=           0
         NFxFlg=           0 DoJE=F BraDBF=F KetDBF=F FulRan=T
         wScrn=  0.000000 ICntrl=     600 IOpCl=  0 I1Cent=           0 NGrid=           0
         NMat0=    1 NMatS0=   1953 NMatT0=    0 NMatD0=    1 NMtDS0=    0 NMtDT0=    0
 Symmetry not used in FoFCou.
 Integral accuracy reduced to 1.0D-05 until final iterations.

 Cycle   1  Pass 0  IDiag  1:
 E= -153.460413483085    
 DIIS: error= 2.38D-02 at cycle   1 NSaved=   1.
 NSaved= 1 IEnMin= 1 EnMin= -153.460413483085     IErMin= 1 ErrMin= 2.38D-02
 ErrMax= 2.38D-02  0.00D+00 EMaxC= 1.00D-01 BMatC= 1.56D-01 BMatP= 1.56D-01
 IDIUse=3 WtCom= 7.62D-01 WtEn= 2.38D-01
 Coeff-Com:  0.100D+01
 Coeff-En:   0.100D+01
 Coeff:      0.100D+01
 Gap=     0.150 Goal=   None    Shift=    0.000
 Gap=     0.235 Goal=   None    Shift=    0.000
 GapD=    0.150 DampG=1.000 DampE=0.500 DampFc=0.5000 IDamp=-1.
 Damping current iteration by 5.00D-01
 RMSDP=2.17D-02 MaxDP=4.59D-01              OVMax= 4.54D-01

 Cycle   2  Pass 0  IDiag  1:
 E= -153.514463205046     Delta-E=       -0.054049721960 Rises=F Damp=T
 DIIS: error= 1.74D-02 at cycle   2 NSaved=   2.
 NSaved= 2 IEnMin= 2 EnMin= -153.514463205046     IErMin= 2 ErrMin= 1.74D-02
 ErrMax= 1.74D-02  0.00D+00 EMaxC= 1.00D-01 BMatC= 3.82D-02 BMatP= 1.56D-01
 IDIUse=3 WtCom= 8.26D-01 WtEn= 1.74D-01
 Coeff-Com: -0.433D+00 0.143D+01
 Coeff-En:   0.000D+00 0.100D+01
 Coeff:     -0.357D+00 0.136D+01
 Gap=     0.295 Goal=   None    Shift=    0.000
 Gap=     0.236 Goal=   None    Shift=    0.000
 RMSDP=1.57D-02 MaxDP=3.85D-01 DE=-5.40D-02 OVMax= 1.35D-01

 Cycle   3  Pass 0  IDiag  1:
 E= -153.600056085890     Delta-E=       -0.085592880844 Rises=F Damp=F
 DIIS: error= 6.74D-03 at cycle   3 NSaved=   3.
 NSaved= 3 IEnMin= 3 EnMin= -153.600056085890     IErMin= 3 ErrMin= 6.74D-03
 ErrMax= 6.74D-03  0.00D+00 EMaxC= 1.00D-01 BMatC= 7.02D-03 BMatP= 3.82D-02
 IDIUse=3 WtCom= 9.33D-01 WtEn= 6.74D-02
 Coeff-Com: -0.177D+00 0.245D+00 0.932D+00
 Coeff-En:   0.000D+00 0.000D+00 0.100D+01
 Coeff:     -0.165D+00 0.228D+00 0.936D+00
 Gap=     0.350 Goal=   None    Shift=    0.000
 Gap=     0.242 Goal=   None    Shift=    0.000
 RMSDP=3.56D-03 MaxDP=8.90D-02 DE=-8.56D-02 OVMax= 1.01D-01

 Cycle   4  Pass 0  IDiag  1:
 E= -153.607788988682     Delta-E=       -0.007732902792 Rises=F Damp=F
 DIIS: error= 2.78D-03 at cycle   4 NSaved=   4.
 NSaved= 4 IEnMin= 4 EnMin= -153.607788988682     IErMin= 4 ErrMin= 2.78D-03
 ErrMax= 2.78D-03  0.00D+00 EMaxC= 1.00D-01 BMatC= 1.21D-03 BMatP= 7.02D-03
 IDIUse=3 WtCom= 9.72D-01 WtEn= 2.78D-02
 Coeff-Com:  0.631D-01-0.192D+00-0.681D-01 0.120D+01
 Coeff-En:   0.000D+00 0.000D+00 0.000D+00 0.100D+01
 Coeff:      0.613D-01-0.186D+00-0.662D-01 0.119D+01
 Gap=     0.362 Goal=   None    Shift=    0.000
 Gap=     0.249 Goal=   None    Shift=    0.000
 RMSDP=1.88D-03 MaxDP=4.23D-02 DE=-7.73D-03 OVMax= 5.58D-02

 Cycle   5  Pass 0  IDiag  1:
 E= -153.609654596308     Delta-E=       -0.001865607626 Rises=F Damp=F
 DIIS: error= 1.27D-03 at cycle   5 NSaved=   5.
 NSaved= 5 IEnMin= 5 EnMin= -153.609654596308     IErMin= 5 ErrMin= 1.27D-03
 ErrMax= 1.27D-03  0.00D+00 EMaxC= 1.00D-01 BMatC= 2.97D-04 BMatP= 1.21D-03
 IDIUse=3 WtCom= 9.87D-01 WtEn= 1.27D-02
 Coeff-Com:  0.233D-01-0.272D-01-0.150D+00 0.253D+00 0.901D+00
 Coeff-En:   0.000D+00 0.000D+00 0.000D+00 0.000D+00 0.100D+01
 Coeff:      0.230D-01-0.269D-01-0.148D+00 0.250D+00 0.902D+00
 Gap=     0.362 Goal=   None    Shift=    0.000
 Gap=     0.251 Goal=   None    Shift=    0.000
 RMSDP=4.14D-04 MaxDP=7.36D-03 DE=-1.87D-03 OVMax= 1.97D-02

 Cycle   6  Pass 0  IDiag  1:
 E= -153.609996012733     Delta-E=       -0.000341416425 Rises=F Damp=F
 DIIS: error= 1.15D-03 at cycle   6 NSaved=   6.
 NSaved= 6 IEnMin= 6 EnMin= -153.609996012733     IErMin= 6 ErrMin= 1.15D-03
 ErrMax= 1.15D-03  0.00D+00 EMaxC= 1.00D-01 BMatC= 1.27D-04 BMatP= 2.97D-04
 IDIUse=3 WtCom= 9.89D-01 WtEn= 1.15D-02
 Coeff-Com: -0.137D-03 0.968D-02-0.433D-01-0.416D-01 0.353D+00 0.722D+00
 Coeff-En:   0.000D+00 0.000D+00 0.000D+00 0.000D+00 0.000D+00 0.100D+01
 Coeff:     -0.135D-03 0.957D-02-0.428D-01-0.411D-01 0.349D+00 0.726D+00
 Gap=     0.361 Goal=   None    Shift=    0.000
 Gap=     0.252 Goal=   None    Shift=    0.000
 RMSDP=2.11D-04 MaxDP=4.83D-03 DE=-3.41D-04 OVMax= 1.61D-02

 Cycle   7  Pass 0  IDiag  1:
 E= -153.610192053111     Delta-E=       -0.000196040378 Rises=F Damp=F
 DIIS: error= 1.10D-03 at cycle   7 NSaved=   7.
 NSaved= 7 IEnMin= 7 EnMin= -153.610192053111     IErMin= 7 ErrMin= 1.10D-03
 ErrMax= 1.10D-03  0.00D+00 EMaxC= 1.00D-01 BMatC= 7.35D-05 BMatP= 1.27D-04
 IDIUse=3 WtCom= 9.89D-01 WtEn= 1.10D-02
 Coeff-Com: -0.607D-02 0.118D-01 0.218D-01-0.698D-01-0.110D+00 0.133D+00
 Coeff-Com:  0.102D+01
 Coeff-En:   0.000D+00 0.000D+00 0.000D+00 0.000D+00 0.000D+00 0.000D+00
 Coeff-En:   0.100D+01
 Coeff:     -0.600D-02 0.117D-01 0.216D-01-0.691D-01-0.109D+00 0.132D+00
 Coeff:      0.102D+01
 Gap=     0.361 Goal=   None    Shift=    0.000
 Gap=     0.252 Goal=   None    Shift=    0.000
 RMSDP=2.73D-04 MaxDP=7.91D-03 DE=-1.96D-04 OVMax= 2.20D-02

 Cycle   8  Pass 0  IDiag  1:
 E= -153.610434178480     Delta-E=       -0.000242125369 Rises=F Damp=F
 DIIS: error= 1.04D-03 at cycle   8 NSaved=   8.
 NSaved= 8 IEnMin= 8 EnMin= -153.610434178480     IErMin= 8 ErrMin= 1.04D-03
 ErrMax= 1.04D-03  0.00D+00 EMaxC= 1.00D-01 BMatC= 6.55D-05 BMatP= 7.35D-05
 IDIUse=3 WtCom= 9.90D-01 WtEn= 1.04D-02
 Coeff-Com: -0.967D-03 0.442D-02 0.256D-02-0.333D-02-0.616D-01-0.133D+00
 Coeff-Com:  0.199D-01 0.117D+01
 Coeff-En:   0.000D+00 0.000D+00 0.000D+00 0.000D+00 0.000D+00 0.000D+00
 Coeff-En:   0.000D+00 0.100D+01
 Coeff:     -0.957D-03 0.438D-02 0.253D-02-0.330D-02-0.609D-01-0.131D+00
 Coeff:      0.197D-01 0.117D+01
 Gap=     0.361 Goal=   None    Shift=    0.000
 Gap=     0.253 Goal=   None    Shift=    0.000
 RMSDP=3.14D-04 MaxDP=9.10D-03 DE=-2.42D-04 OVMax= 2.56D-02

 Cycle   9  Pass 0  IDiag  1:
 E= -153.610704123073     Delta-E=       -0.000269944593 Rises=F Damp=F
 DIIS: error= 1.01D-03 at cycle   9 NSaved=   9.
 NSaved= 9 IEnMin= 9 EnMin= -153.610704123073     IErMin= 9 ErrMin= 1.01D-03
 ErrMax= 1.01D-03  0.00D+00 EMaxC= 1.00D-01 BMatC= 6.23D-05 BMatP= 6.55D-05
 IDIUse=3 WtCom= 9.90D-01 WtEn= 1.01D-02
 Coeff-Com:  0.581D-02-0.103D-01-0.295D-01 0.782D-01 0.129D+00-0.999D-01
 Coeff-Com: -0.100D+01 0.157D-01 0.191D+01
 Coeff-En:   0.000D+00 0.000D+00 0.000D+00 0.000D+00 0.000D+00 0.000D+00
 Coeff-En:   0.000D+00 0.000D+00 0.100D+01
 Coeff:      0.575D-02-0.102D-01-0.292D-01 0.775D-01 0.127D+00-0.989D-01
 Coeff:     -0.993D+00 0.156D-01 0.191D+01
 Gap=     0.362 Goal=   None    Shift=    0.000
 Gap=     0.254 Goal=   None    Shift=    0.000
 RMSDP=6.75D-04 MaxDP=2.04D-02 DE=-2.70D-04 OVMax= 5.51D-02

 Cycle  10  Pass 0  IDiag  1:
 E= -153.611261598220     Delta-E=       -0.000557475147 Rises=F Damp=F
 DIIS: error= 9.33D-04 at cycle  10 NSaved=  10.
 NSaved=10 IEnMin=10 EnMin= -153.611261598220     IErMin=10 ErrMin= 9.33D-04
 ErrMax= 9.33D-04  0.00D+00 EMaxC= 1.00D-01 BMatC= 5.46D-05 BMatP= 6.23D-05
 IDIUse=3 WtCom= 9.91D-01 WtEn= 9.33D-03
 Coeff-Com: -0.372D-02 0.113D-01-0.110D-03-0.253D-01 0.246D-01 0.239D+00
 Coeff-Com:  0.481D+00-0.153D+01-0.177D+01 0.358D+01
 Coeff-En:   0.000D+00 0.000D+00 0.000D+00 0.000D+00 0.000D+00 0.000D+00
 Coeff-En:   0.000D+00 0.000D+00 0.000D+00 0.100D+01
 Coeff:     -0.369D-02 0.112D-01-0.109D-03-0.251D-01 0.244D-01 0.236D+00
 Coeff:      0.476D+00-0.152D+01-0.176D+01 0.356D+01
 Gap=     0.362 Goal=   None    Shift=    0.000
 Gap=     0.258 Goal=   None    Shift=    0.000
 RMSDP=1.81D-03 MaxDP=5.71D-02 DE=-5.57D-04 OVMax= 1.47D-01

 Cycle  11  Pass 0  IDiag  1:
 E= -153.612544196085     Delta-E=       -0.001282597865 Rises=F Damp=F
 DIIS: error= 7.00D-04 at cycle  11 NSaved=  11.
 NSaved=11 IEnMin=11 EnMin= -153.612544196085     IErMin=11 ErrMin= 7.00D-04
 ErrMax= 7.00D-04  0.00D+00 EMaxC= 1.00D-01 BMatC= 5.29D-05 BMatP= 5.46D-05
 IDIUse=3 WtCom= 9.93D-01 WtEn= 7.00D-03
 Coeff-Com: -0.333D-02 0.997D-02-0.365D-02-0.114D-01 0.251D-01 0.813D-01
 Coeff-Com:  0.260D+00-0.481D+00-0.122D+01 0.197D+01 0.370D+00
 Coeff-En:   0.000D+00 0.000D+00 0.000D+00 0.000D+00 0.000D+00 0.000D+00
 Coeff-En:   0.000D+00 0.000D+00 0.000D+00 0.000D+00 0.100D+01
 Coeff:     -0.330D-02 0.990D-02-0.362D-02-0.113D-01 0.249D-01 0.808D-01
 Coeff:      0.258D+00-0.478D+00-0.121D+01 0.196D+01 0.375D+00
 Gap=     0.362 Goal=   None    Shift=    0.000
 Gap=     0.262 Goal=   None    Shift=    0.000
 RMSDP=1.82D-04 MaxDP=5.46D-03 DE=-1.28D-03 OVMax= 1.45D-02

 Cycle  12  Pass 0  IDiag  1:
 E= -153.612441735096     Delta-E=        0.000102460989 Rises=F Damp=F
 DIIS: error= 7.32D-04 at cycle  12 NSaved=  12.
 NSaved=12 IEnMin=11 EnMin= -153.612544196085     IErMin=11 ErrMin= 7.00D-04
 ErrMax= 7.32D-04  0.00D+00 EMaxC= 1.00D-01 BMatC= 3.88D-05 BMatP= 5.29D-05
 IDIUse=3 WtCom= 9.93D-01 WtEn= 7.00D-03
 Rare condition: small coef for last iteration:  0.000D+00
 Coeff-Com:  0.151D-02-0.107D-02 0.442D-02-0.133D-01-0.149D+00 0.902D-01
 Coeff-Com:  0.337D+00 0.580D+00-0.238D+01-0.116D+01-0.326D+01 0.696D+01
 Coeff-En:   0.000D+00 0.000D+00 0.000D+00 0.000D+00 0.000D+00 0.000D+00
 Coeff-En:   0.000D+00 0.000D+00 0.000D+00 0.000D+00 0.000D+00 0.100D+01
 Coeff:      0.151D-02-0.107D-02 0.442D-02-0.133D-01-0.149D+00 0.902D-01
 Coeff:      0.337D+00 0.580D+00-0.238D+01-0.116D+01-0.326D+01 0.696D+01
 Gap=     0.364 Goal=   None    Shift=    0.000
 Gap=     0.290 Goal=   None    Shift=    0.000
 RMSDP=3.49D-03 MaxDP=1.07D-01 DE= 1.02D-04 OVMax= 2.72D-01

 Cycle  13  Pass 0  IDiag  1:
 E= -153.613514245890     Delta-E=       -0.001072510794 Rises=F Damp=F
 DIIS: error= 2.50D-03 at cycle  13 NSaved=  13.
 NSaved=13 IEnMin=13 EnMin= -153.613514245890     IErMin=11 ErrMin= 7.00D-04
 ErrMax= 2.50D-03  0.00D+00 EMaxC= 1.00D-01 BMatC= 7.60D-04 BMatP= 3.88D-05
 IDIUse=3 WtCom= 9.93D-01 WtEn= 7.00D-03
 Coeff-Com:  0.355D-02-0.629D-02-0.174D-02 0.389D-02-0.750D-01 0.168D+00
 Coeff-Com: -0.452D-01-0.303D+00-0.136D+01-0.499D+00-0.427D+01 0.723D+01
 Coeff-Com:  0.152D+00
 Coeff-En:   0.000D+00 0.000D+00 0.000D+00 0.000D+00 0.000D+00 0.000D+00
 Coeff-En:   0.000D+00 0.000D+00 0.000D+00 0.000D+00 0.000D+00 0.000D+00
 Coeff-En:   0.100D+01
 Coeff:      0.353D-02-0.624D-02-0.172D-02 0.386D-02-0.745D-01 0.167D+00
 Coeff:     -0.448D-01-0.301D+00-0.135D+01-0.495D+00-0.424D+01 0.718D+01
 Coeff:      0.158D+00
 Gap=     0.364 Goal=   None    Shift=    0.000
 Gap=     0.333 Goal=   None    Shift=    0.000
 RMSDP=9.86D-05 MaxDP=2.39D-03 DE=-1.07D-03 OVMax= 6.93D-03

 Cycle  14  Pass 0  IDiag  1:
 E= -153.613566672819     Delta-E=       -0.000052426929 Rises=F Damp=F
 DIIS: error= 2.22D-03 at cycle  14 NSaved=  14.
 NSaved=14 IEnMin=14 EnMin= -153.613566672819     IErMin=11 ErrMin= 7.00D-04
 ErrMax= 2.22D-03  0.00D+00 EMaxC= 1.00D-01 BMatC= 6.11D-04 BMatP= 3.88D-05
 IDIUse=3 WtCom= 9.93D-01 WtEn= 7.00D-03
 Coeff-Com:  0.124D-02-0.275D-02 0.973D-02-0.991D-02-0.116D+00 0.175D+00
 Coeff-Com:  0.420D+00-0.420D+00-0.175D+01 0.151D+00-0.376D+01 0.584D+01
 Coeff-Com: -0.248D+01 0.294D+01
 Coeff-En:   0.000D+00 0.000D+00 0.000D+00 0.000D+00 0.000D+00 0.000D+00
 Coeff-En:   0.000D+00 0.000D+00 0.000D+00 0.000D+00 0.000D+00 0.000D+00
 Coeff-En:   0.000D+00 0.100D+01
 Coeff:      0.123D-02-0.274D-02 0.966D-02-0.984D-02-0.115D+00 0.174D+00
 Coeff:      0.417D+00-0.417D+00-0.174D+01 0.150D+00-0.374D+01 0.580D+01
 Coeff:     -0.246D+01 0.293D+01
 Gap=     0.363 Goal=   None    Shift=    0.000
 Gap=     0.319 Goal=   None    Shift=    0.000
 RMSDP=1.05D-04 MaxDP=1.93D-03 DE=-5.24D-05 OVMax= 4.50D-03

 Cycle  15  Pass 0  IDiag  1:
 E= -153.613675122444     Delta-E=       -0.000108449626 Rises=F Damp=F
 DIIS: error= 1.79D-03 at cycle  15 NSaved=  15.
 NSaved=15 IEnMin=15 EnMin= -153.613675122444     IErMin=11 ErrMin= 7.00D-04
 ErrMax= 1.79D-03  0.00D+00 EMaxC= 1.00D-01 BMatC= 3.97D-04 BMatP= 3.88D-05
 IDIUse=3 WtCom= 9.93D-01 WtEn= 7.00D-03
 Coeff-Com: -0.540D-03 0.167D-02 0.150D-02-0.903D-02-0.332D-01 0.150D-01
 Coeff-Com:  0.214D+00 0.166D+00-0.603D+00-0.333D+00-0.259D-02 0.659D+00
 Coeff-Com: -0.574D+00-0.318D+01 0.467D+01
 Coeff-En:   0.000D+00 0.000D+00 0.000D+00 0.000D+00 0.000D+00 0.000D+00
 Coeff-En:   0.000D+00 0.000D+00 0.000D+00 0.000D+00 0.000D+00 0.000D+00
 Coeff-En:   0.000D+00 0.000D+00 0.100D+01
 Coeff:     -0.536D-03 0.166D-02 0.149D-02-0.897D-02-0.330D-01 0.149D-01
 Coeff:      0.212D+00 0.165D+00-0.599D+00-0.331D+00-0.258D-02 0.654D+00
 Coeff:     -0.570D+00-0.316D+01 0.465D+01
 Gap=     0.362 Goal=   None    Shift=    0.000
 Gap=     0.282 Goal=   None    Shift=    0.000
 RMSDP=6.46D-04 MaxDP=1.48D-02 DE=-1.08D-04 OVMax= 4.81D-02

 Cycle  16  Pass 0  IDiag  1:
 E= -153.613907284043     Delta-E=       -0.000232161599 Rises=F Damp=F
 DIIS: error= 7.06D-04 at cycle  16 NSaved=  16.
 NSaved=16 IEnMin=16 EnMin= -153.613907284043     IErMin=11 ErrMin= 7.00D-04
 ErrMax= 7.06D-04  0.00D+00 EMaxC= 1.00D-01 BMatC= 5.80D-05 BMatP= 3.88D-05
 IDIUse=3 WtCom= 9.93D-01 WtEn= 7.00D-03
 Coeff-Com: -0.712D-03 0.182D-02-0.581D-04-0.760D-02-0.141D-01 0.316D-01
 Coeff-Com:  0.691D-01 0.134D+00-0.377D+00 0.743D-01 0.920D+00-0.738D+00
 Coeff-Com:  0.957D+00-0.200D+01 0.478D+00 0.148D+01
 Coeff-En:   0.000D+00 0.000D+00 0.000D+00 0.000D+00 0.000D+00 0.000D+00
 Coeff-En:   0.000D+00 0.000D+00 0.000D+00 0.000D+00 0.000D+00 0.000D+00
 Coeff-En:   0.000D+00 0.000D+00 0.000D+00 0.100D+01
 Coeff:     -0.707D-03 0.181D-02-0.577D-04-0.754D-02-0.140D-01 0.314D-01
 Coeff:      0.686D-01 0.133D+00-0.375D+00 0.738D-01 0.913D+00-0.733D+00
 Coeff:      0.950D+00-0.199D+01 0.475D+00 0.147D+01
 Gap=     0.362 Goal=   None    Shift=    0.000
 Gap=     0.264 Goal=   None    Shift=    0.000
 RMSDP=3.89D-04 MaxDP=8.21D-03 DE=-2.32D-04 OVMax= 2.99D-02

 Cycle  17  Pass 0  IDiag  1:
 E= -153.613951796647     Delta-E=       -0.000044512604 Rises=F Damp=F
 DIIS: error= 1.80D-04 at cycle  17 NSaved=  17.
 NSaved=17 IEnMin=17 EnMin= -153.613951796647     IErMin=17 ErrMin= 1.80D-04
 ErrMax= 1.80D-04  0.00D+00 EMaxC= 1.00D-01 BMatC= 3.55D-06 BMatP= 3.88D-05
 IDIUse=3 WtCom= 9.98D-01 WtEn= 1.80D-03
 Coeff-Com:  0.131D-03-0.209D-03 0.640D-03 0.234D-02-0.145D-01 0.656D-02
 Coeff-Com:  0.876D-02 0.147D+00-0.124D+00 0.715D-04-0.631D-01 0.446D-01
 Coeff-Com: -0.253D+00 0.928D+00-0.738D+00-0.518D+00 0.157D+01
 Coeff-En:   0.000D+00 0.000D+00 0.000D+00 0.000D+00 0.000D+00 0.000D+00
 Coeff-En:   0.000D+00 0.000D+00 0.000D+00 0.000D+00 0.000D+00 0.000D+00
 Coeff-En:   0.000D+00 0.000D+00 0.000D+00 0.000D+00 0.100D+01
 Coeff:      0.131D-03-0.208D-03 0.639D-03 0.234D-02-0.145D-01 0.655D-02
 Coeff:      0.874D-02 0.147D+00-0.123D+00 0.713D-04-0.629D-01 0.445D-01
 Coeff:     -0.252D+00 0.926D+00-0.737D+00-0.517D+00 0.157D+01
 Gap=     0.362 Goal=   None    Shift=    0.000
 Gap=     0.254 Goal=   None    Shift=    0.000
 RMSDP=1.22D-04 MaxDP=2.59D-03 DE=-4.45D-05 OVMax= 7.98D-03

 Cycle  18  Pass 0  IDiag  1:
 E= -153.613953845572     Delta-E=       -0.000002048925 Rises=F Damp=F
 DIIS: error= 1.35D-04 at cycle  18 NSaved=  18.
 NSaved=18 IEnMin=18 EnMin= -153.613953845572     IErMin=18 ErrMin= 1.35D-04
 ErrMax= 1.35D-04  0.00D+00 EMaxC= 1.00D-01 BMatC= 2.01D-06 BMatP= 3.55D-06
 IDIUse=3 WtCom= 9.99D-01 WtEn= 1.35D-03
 Coeff-Com:  0.137D-03-0.152D-03-0.389D-03 0.766D-03 0.188D-02 0.114D-03
 Coeff-Com: -0.295D-01 0.962D-02 0.583D-01-0.401D-02-0.577D-01-0.133D-01
 Coeff-Com:  0.110D+00-0.179D+00 0.130D+00 0.127D+00-0.231D+00 0.108D+01
 Coeff-En:   0.000D+00 0.000D+00 0.000D+00 0.000D+00 0.000D+00 0.000D+00
 Coeff-En:   0.000D+00 0.000D+00 0.000D+00 0.000D+00 0.000D+00 0.000D+00
 Coeff-En:   0.000D+00 0.000D+00 0.000D+00 0.000D+00 0.000D+00 0.100D+01
 Coeff:      0.137D-03-0.152D-03-0.388D-03 0.765D-03 0.188D-02 0.114D-03
 Coeff:     -0.295D-01 0.960D-02 0.582D-01-0.400D-02-0.576D-01-0.133D-01
 Coeff:      0.110D+00-0.179D+00 0.130D+00 0.127D+00-0.231D+00 0.108D+01
 Gap=     0.362 Goal=   None    Shift=    0.000
 Gap=     0.258 Goal=   None    Shift=    0.000
 RMSDP=2.43D-05 MaxDP=3.89D-04 DE=-2.05D-06 OVMax= 7.21D-04

 Cycle  19  Pass 0  IDiag  1:
 E= -153.613954764799     Delta-E=       -0.000000919227 Rises=F Damp=F
 DIIS: error= 1.99D-05 at cycle  19 NSaved=  19.
 NSaved=19 IEnMin=19 EnMin= -153.613954764799     IErMin=19 ErrMin= 1.99D-05
 ErrMax= 1.99D-05  0.00D+00 EMaxC= 1.00D-01 BMatC= 4.77D-08 BMatP= 2.01D-06
 IDIUse=1 WtCom= 1.00D+00 WtEn= 0.00D+00
 Coeff-Com: -0.560D-04 0.971D-04 0.107D-03-0.245D-03-0.149D-03 0.806D-03
 Coeff-Com:  0.483D-02-0.103D-01-0.929D-02 0.204D-01-0.484D-02-0.446D-02
 Coeff-Com: -0.810D-02-0.504D-02 0.199D-01 0.146D-01-0.488D-01-0.141D+00
 Coeff-Com:  0.117D+01
 Coeff:     -0.560D-04 0.971D-04 0.107D-03-0.245D-03-0.149D-03 0.806D-03
 Coeff:      0.483D-02-0.103D-01-0.929D-02 0.204D-01-0.484D-02-0.446D-02
 Coeff:     -0.810D-02-0.504D-02 0.199D-01 0.146D-01-0.488D-01-0.141D+00
 Coeff:      0.117D+01
 Gap=     0.362 Goal=   None    Shift=    0.000
 Gap=     0.259 Goal=   None    Shift=    0.000
 RMSDP=5.69D-06 MaxDP=8.87D-05 DE=-9.19D-07 OVMax= 1.53D-04

 Initial convergence to 1.0D-05 achieved.  Increase integral accuracy.
 Cycle  20  Pass 1  IDiag  1:
 E= -153.613960777083     Delta-E=       -0.000006012284 Rises=F Damp=F
 DIIS: error= 1.94D-05 at cycle   1 NSaved=   1.
 NSaved= 1 IEnMin= 1 EnMin= -153.613960777083     IErMin= 1 ErrMin= 1.94D-05
 ErrMax= 1.94D-05  0.00D+00 EMaxC= 1.00D-01 BMatC= 1.28D-07 BMatP= 1.28D-07
 IDIUse=1 WtCom= 1.00D+00 WtEn= 0.00D+00
 Coeff-Com:  0.100D+01
 Coeff:      0.100D+01
 Gap=     0.362 Goal=   None    Shift=    0.000
 Gap=     0.259 Goal=   None    Shift=    0.000
 RMSDP=5.69D-06 MaxDP=8.87D-05 DE=-6.01D-06 OVMax= 6.64D-05

 Cycle  21  Pass 1  IDiag  1:
 E= -153.613960816007     Delta-E=       -0.000000038924 Rises=F Damp=F
 DIIS: error= 3.04D-06 at cycle   2 NSaved=   2.
 NSaved= 2 IEnMin= 2 EnMin= -153.613960816007     IErMin= 2 ErrMin= 3.04D-06
 ErrMax= 3.04D-06  0.00D+00 EMaxC= 1.00D-01 BMatC= 5.26D-09 BMatP= 1.28D-07
 IDIUse=1 WtCom= 1.00D+00 WtEn= 0.00D+00
 Coeff-Com: -0.554D-01 0.106D+01
 Coeff:     -0.554D-01 0.106D+01
 Gap=     0.362 Goal=   None    Shift=    0.000
 Gap=     0.259 Goal=   None    Shift=    0.000
 RMSDP=1.28D-06 MaxDP=1.82D-05 DE=-3.89D-08 OVMax= 3.09D-05

 Cycle  22  Pass 1  IDiag  1:
 E= -153.613960818158     Delta-E=       -0.000000002151 Rises=F Damp=F
 DIIS: error= 2.51D-06 at cycle   3 NSaved=   3.
 NSaved= 3 IEnMin= 3 EnMin= -153.613960818158     IErMin= 3 ErrMin= 2.51D-06
 ErrMax= 2.51D-06  0.00D+00 EMaxC= 1.00D-01 BMatC= 2.94D-09 BMatP= 5.26D-09
 IDIUse=1 WtCom= 1.00D+00 WtEn= 0.00D+00
 Coeff-Com: -0.600D-01 0.448D+00 0.612D+00
 Coeff:     -0.600D-01 0.448D+00 0.612D+00
 Gap=     0.362 Goal=   None    Shift=    0.000
 Gap=     0.259 Goal=   None    Shift=    0.000
 RMSDP=4.66D-07 MaxDP=8.50D-06 DE=-2.15D-09 OVMax= 1.35D-05

 Cycle  23  Pass 1  IDiag  1:
 E= -153.613960818955     Delta-E=       -0.000000000796 Rises=F Damp=F
 DIIS: error= 1.07D-06 at cycle   4 NSaved=   4.
 NSaved= 4 IEnMin= 4 EnMin= -153.613960818955     IErMin= 4 ErrMin= 1.07D-06
 ErrMax= 1.07D-06  0.00D+00 EMaxC= 1.00D-01 BMatC= 2.77D-10 BMatP= 2.94D-09
 IDIUse=1 WtCom= 1.00D+00 WtEn= 0.00D+00
 Coeff-Com: -0.337D-03-0.989D-01 0.111D+00 0.989D+00
 Coeff:     -0.337D-03-0.989D-01 0.111D+00 0.989D+00
 Gap=     0.362 Goal=   None    Shift=    0.000
 Gap=     0.259 Goal=   None    Shift=    0.000
 RMSDP=3.64D-07 MaxDP=7.09D-06 DE=-7.96D-10 OVMax= 2.17D-05

 Cycle  24  Pass 1  IDiag  1:
 E= -153.613960819295     Delta-E=       -0.000000000340 Rises=F Damp=F
 DIIS: error= 9.71D-07 at cycle   5 NSaved=   5.
 NSaved= 5 IEnMin= 5 EnMin= -153.613960819295     IErMin= 5 ErrMin= 9.71D-07
 ErrMax= 9.71D-07  0.00D+00 EMaxC= 1.00D-01 BMatC= 9.25D-11 BMatP= 2.77D-10
 IDIUse=1 WtCom= 1.00D+00 WtEn= 0.00D+00
 Coeff-Com:  0.717D-02-0.749D-01-0.622D-01 0.187D+00 0.942D+00
 Coeff:      0.717D-02-0.749D-01-0.622D-01 0.187D+00 0.942D+00
 Gap=     0.362 Goal=   None    Shift=    0.000
 Gap=     0.259 Goal=   None    Shift=    0.000
 RMSDP=2.65D-07 MaxDP=5.81D-06 DE=-3.40D-10 OVMax= 1.98D-05

 Cycle  25  Pass 1  IDiag  1:
 E= -153.613960819521     Delta-E=       -0.000000000226 Rises=F Damp=F
 DIIS: error= 9.80D-07 at cycle   6 NSaved=   6.
 NSaved= 6 IEnMin= 6 EnMin= -153.613960819521     IErMin= 5 ErrMin= 9.71D-07
 ErrMax= 9.80D-07  0.00D+00 EMaxC= 1.00D-01 BMatC= 6.36D-11 BMatP= 9.25D-11
 IDIUse=1 WtCom= 1.00D+00 WtEn= 0.00D+00
 Coeff-Com:  0.687D-03 0.759D-02-0.262D-01-0.124D+00 0.866D-03 0.114D+01
 Coeff:      0.687D-03 0.759D-02-0.262D-01-0.124D+00 0.866D-03 0.114D+01
 Gap=     0.362 Goal=   None    Shift=    0.000
 Gap=     0.259 Goal=   None    Shift=    0.000
 RMSDP=2.85D-07 MaxDP=6.56D-06 DE=-2.26D-10 OVMax= 2.29D-05

 Cycle  26  Pass 1  IDiag  1:
 E= -153.613960819755     Delta-E=       -0.000000000235 Rises=F Damp=F
 DIIS: error= 9.33D-07 at cycle   7 NSaved=   7.
 NSaved= 7 IEnMin= 7 EnMin= -153.613960819755     IErMin= 7 ErrMin= 9.33D-07
 ErrMax= 9.33D-07  0.00D+00 EMaxC= 1.00D-01 BMatC= 5.65D-11 BMatP= 6.36D-11
 IDIUse=1 WtCom= 1.00D+00 WtEn= 0.00D+00
 Coeff-Com: -0.516D-02 0.418D-01 0.555D-01-0.114D-01-0.779D+00-0.384D+00
 Coeff-Com:  0.208D+01
 Coeff:     -0.516D-02 0.418D-01 0.555D-01-0.114D-01-0.779D+00-0.384D+00
 Coeff:      0.208D+01
 Gap=     0.362 Goal=   None    Shift=    0.000
 Gap=     0.259 Goal=   None    Shift=    0.000
 RMSDP=6.16D-07 MaxDP=1.42D-05 DE=-2.35D-10 OVMax= 5.01D-05

 Cycle  27  Pass 1  IDiag  1:
 E= -153.613960820222     Delta-E=       -0.000000000467 Rises=F Damp=F
 DIIS: error= 8.23D-07 at cycle   8 NSaved=   8.
 NSaved= 8 IEnMin= 8 EnMin= -153.613960820222     IErMin= 8 ErrMin= 8.23D-07
 ErrMax= 8.23D-07  0.00D+00 EMaxC= 1.00D-01 BMatC= 4.42D-11 BMatP= 5.65D-11
 IDIUse=1 WtCom= 1.00D+00 WtEn= 0.00D+00
 Coeff-Com:  0.490D-03-0.402D-01 0.505D-01 0.323D+00 0.209D+00-0.196D+01
 Coeff-Com: -0.128D+01 0.369D+01
 Coeff:      0.490D-03-0.402D-01 0.505D-01 0.323D+00 0.209D+00-0.196D+01
 Coeff:     -0.128D+01 0.369D+01
 Gap=     0.362 Goal=   None    Shift=    0.000
 Gap=     0.259 Goal=   None    Shift=    0.000
 RMSDP=1.96D-06 MaxDP=4.48D-05 DE=-4.67D-10 OVMax= 1.59D-04

 Cycle  28  Pass 1  IDiag  1:
 E= -153.613960821324     Delta-E=       -0.000000001102 Rises=F Damp=F
 DIIS: error= 4.77D-07 at cycle   9 NSaved=   9.
 NSaved= 9 IEnMin= 9 EnMin= -153.613960821324     IErMin= 9 ErrMin= 4.77D-07
 ErrMax= 4.77D-07  0.00D+00 EMaxC= 1.00D-01 BMatC= 1.76D-11 BMatP= 4.42D-11
 IDIUse=1 WtCom= 1.00D+00 WtEn= 0.00D+00
 Coeff-Com:  0.564D-02-0.579D-01-0.360D-01 0.915D-01 0.730D+00 0.232D-01
 Coeff-Com: -0.215D+01 0.643D+00 0.175D+01
 Coeff:      0.564D-02-0.579D-01-0.360D-01 0.915D-01 0.730D+00 0.232D-01
 Coeff:     -0.215D+01 0.643D+00 0.175D+01
 Gap=     0.362 Goal=   None    Shift=    0.000
 Gap=     0.259 Goal=   None    Shift=    0.000
 RMSDP=1.99D-06 MaxDP=4.52D-05 DE=-1.10D-09 OVMax= 1.62D-04

 Cycle  29  Pass 1  IDiag  1:
 E= -153.613960821851     Delta-E=       -0.000000000527 Rises=F Damp=F
 DIIS: error= 1.23D-07 at cycle  10 NSaved=  10.
 NSaved=10 IEnMin=10 EnMin= -153.613960821851     IErMin=10 ErrMin= 1.23D-07
 ErrMax= 1.23D-07  0.00D+00 EMaxC= 1.00D-01 BMatC= 2.76D-12 BMatP= 1.76D-11
 IDIUse=1 WtCom= 1.00D+00 WtEn= 0.00D+00
 Coeff-Com:  0.442D-03 0.327D-02-0.802D-02-0.638D-01-0.444D-02 0.419D+00
 Coeff-Com:  0.189D+00-0.841D+00 0.110D+00 0.120D+01
 Coeff:      0.442D-03 0.327D-02-0.802D-02-0.638D-01-0.444D-02 0.419D+00
 Coeff:      0.189D+00-0.841D+00 0.110D+00 0.120D+01
 Gap=     0.362 Goal=   None    Shift=    0.000
 Gap=     0.259 Goal=   None    Shift=    0.000
 RMSDP=5.99D-07 MaxDP=1.35D-05 DE=-5.27D-10 OVMax= 4.87D-05

 Cycle  30  Pass 1  IDiag  1:
 E= -153.613960821893     Delta-E=       -0.000000000042 Rises=F Damp=F
 DIIS: error= 4.58D-08 at cycle  11 NSaved=  11.
 NSaved=11 IEnMin=11 EnMin= -153.613960821893     IErMin=11 ErrMin= 4.58D-08
 ErrMax= 4.58D-08  0.00D+00 EMaxC= 1.00D-01 BMatC= 5.81D-13 BMatP= 2.76D-12
 IDIUse=1 WtCom= 1.00D+00 WtEn= 0.00D+00
 Coeff-Com: -0.118D-02 0.133D-01 0.923D-02-0.355D-01-0.166D+00 0.758D-01
 Coeff-Com:  0.551D+00-0.339D+00-0.393D+00 0.335D+00 0.950D+00
 Coeff:     -0.118D-02 0.133D-01 0.923D-02-0.355D-01-0.166D+00 0.758D-01
 Coeff:      0.551D+00-0.339D+00-0.393D+00 0.335D+00 0.950D+00
 Gap=     0.362 Goal=   None    Shift=    0.000
 Gap=     0.259 Goal=   None    Shift=    0.000
 RMSDP=1.27D-07 MaxDP=2.80D-06 DE=-4.18D-11 OVMax= 1.03D-05

 Cycle  31  Pass 1  IDiag  1:
 E= -153.613960821895     Delta-E=       -0.000000000002 Rises=F Damp=F
 DIIS: error= 1.59D-08 at cycle  12 NSaved=  12.
 NSaved=12 IEnMin=12 EnMin= -153.613960821895     IErMin=12 ErrMin= 1.59D-08
 ErrMax= 1.59D-08  0.00D+00 EMaxC= 1.00D-01 BMatC= 5.82D-14 BMatP= 5.81D-13
 IDIUse=1 WtCom= 1.00D+00 WtEn= 0.00D+00
 Coeff-Com:  0.363D-04-0.170D-02 0.109D-02 0.135D-01 0.145D-01-0.844D-01
 Coeff-Com: -0.778D-01 0.186D+00 0.400D-02-0.226D+00-0.124D+00 0.130D+01
 Coeff:      0.363D-04-0.170D-02 0.109D-02 0.135D-01 0.145D-01-0.844D-01
 Coeff:     -0.778D-01 0.186D+00 0.400D-02-0.226D+00-0.124D+00 0.130D+01
 Gap=     0.362 Goal=   None    Shift=    0.000
 Gap=     0.259 Goal=   None    Shift=    0.000
 RMSDP=2.11D-08 MaxDP=4.28D-07 DE=-2.44D-12 OVMax= 1.63D-06

 Cycle  32  Pass 1  IDiag  1:
 E= -153.613960821895     Delta-E=        0.000000000000 Rises=F Damp=F
 DIIS: error= 6.78D-09 at cycle  13 NSaved=  13.
 NSaved=13 IEnMin=12 EnMin= -153.613960821895     IErMin=13 ErrMin= 6.78D-09
 ErrMax= 6.78D-09  0.00D+00 EMaxC= 1.00D-01 BMatC= 4.47D-15 BMatP= 5.82D-14
 IDIUse=1 WtCom= 1.00D+00 WtEn= 0.00D+00
 Coeff-Com:  0.807D-04-0.694D-03-0.102D-02 0.100D-02 0.105D-01 0.289D-02
 Coeff-Com: -0.271D-01-0.407D-03 0.250D-01 0.189D-01-0.423D-01-0.265D+00
 Coeff-Com:  0.128D+01
 Coeff:      0.807D-04-0.694D-03-0.102D-02 0.100D-02 0.105D-01 0.289D-02
 Coeff:     -0.271D-01-0.407D-03 0.250D-01 0.189D-01-0.423D-01-0.265D+00
 Coeff:      0.128D+01
 Gap=     0.362 Goal=   None    Shift=    0.000
 Gap=     0.259 Goal=   None    Shift=    0.000
 RMSDP=2.28D-09 MaxDP=5.23D-08 DE= 2.84D-13 OVMax= 1.17D-07

 SCF Done:  E(UM062X) =  -153.613960822     A.U. after   32 cycles
            NFock= 32  Conv=0.23D-08     -V/T= 2.0051
 <Sx>= 0.0000 <Sy>= 0.0000 <Sz>= 1.0000 <S**2>= 2.0112 S= 1.0037
 <L.S>= 0.000000000000E+00
 KE= 1.528368642013D+02 PE=-4.966484069083D+02 EE= 1.215323765817D+02
 Annihilation of the first spin contaminant:
 S**2 before annihilation     2.0112,   after     2.0001
 Leave Link  502 at Mon Aug 16 22:45:50 2021, MaxMem=   134217728 cpu:        73.1
 (Enter /soft/gaussian/09-e.01/g09/l508.exe)
 QCSCF skips out because SCF is already converged.
 Leave Link  508 at Mon Aug 16 22:45:50 2021, MaxMem=   134217728 cpu:         0.0
 (Enter /soft/gaussian/09-e.01/g09/l801.exe)
 DoSCS=F DFT=T ScalE2(SS,OS)=  1.000000  1.000000
 Range of M.O.s used for correlation:     1    62
 NBasis=    62 NAE=    13 NBE=    11 NFC=     0 NFV=     0
 NROrb=     62 NOA=    13 NOB=    11 NVA=    49 NVB=    51
 Leave Link  801 at Mon Aug 16 22:45:50 2021, MaxMem=   134217728 cpu:         0.1
 (Enter /soft/gaussian/09-e.01/g09/l1101.exe)
 Using compressed storage, NAtomX=     7.
 Will process      8 centers per pass.
 Leave Link 1101 at Mon Aug 16 22:45:51 2021, MaxMem=   134217728 cpu:         1.4
 (Enter /soft/gaussian/09-e.01/g09/l1102.exe)
 Symmetrizing basis deriv contribution to polar:
 IMax=3 JMax=2 DiffMx= 0.00D+00
 Leave Link 1102 at Mon Aug 16 22:45:51 2021, MaxMem=   134217728 cpu:         0.2
 (Enter /soft/gaussian/09-e.01/g09/l1110.exe)
 Forming Gx(P) for the SCF density, NAtomX=     7.
 Integral derivatives from FoFJK, PRISM(SPDF).
 Do as many integral derivatives as possible in FoFJK.
 G2DrvN: MDV=     134217568.
 G2DrvN: will do     8 centers at a time, making    1 passes.
 Calling FoFCou, ICntrl=  3107 FMM=F I1Cent=   0 AccDes= 0.00D+00.
 FoFJK:  IHMeth= 1 ICntrl=    3107 DoSepK=F KAlg= 0 I1Cent=   0 FoldK=F
 IRaf=         0 NMat=   1 IRICut=       1 DoRegI=T DoRafI=F ISym2E= 0.
 FoFCou: FMM=F IPFlag=           0 FMFlag=      100000 FMFlg1=           0
         NFxFlg=           0 DoJE=F BraDBF=F KetDBF=F FulRan=T
         wScrn=  0.000000 ICntrl=    3107 IOpCl=  1 I1Cent=           0 NGrid=           0
         NMat0=    1 NMatS0=      1 NMatT0=    0 NMatD0=    1 NMtDS0=    0 NMtDT0=    0
 Symmetry not used in FoFCou.
 End of G2Drv F.D. properties file   721 does not exist.
 End of G2Drv F.D. properties file   722 does not exist.
 End of G2Drv F.D. properties file   788 does not exist.
 Leave Link 1110 at Mon Aug 16 22:45:56 2021, MaxMem=   134217728 cpu:        53.2
 (Enter /soft/gaussian/09-e.01/g09/l1002.exe)
 Minotr:  UHF open shell wavefunction.
          IDoAtm=1111111
          Direct CPHF calculation.
          Differentiating once with respect to electric field.
                with respect to dipole field.
          Differentiating once with respect to nuclear coordinates.
          Requested convergence is 1.0D-08 RMS, and 1.0D-07 maximum.
          Secondary convergence is 1.0D-12 RMS, and 1.0D-12 maximum.
          NewPWx=T KeepS1=F KeepF1=F KeepIn=T MapXYZ=F SortEE=F KeepMc=T.
          MDV=     134217530 using IRadAn=       1.
 Generate precomputed XC quadrature information.
 Keep R1 and R2 ints in memory in canonical form, NReq=4704816.
 FoFCou: FMM=F IPFlag=           0 FMFlag=           0 FMFlg1=           0
         NFxFlg=           0 DoJE=F BraDBF=F KetDBF=F FulRan=T
         wScrn=  0.000000 ICntrl=     600 IOpCl=  0 I1Cent=           0 NGrid=           0
         NMat0=    1 NMatS0=   1953 NMatT0=    0 NMatD0=    1 NMtDS0=    0 NMtDT0=    0
 Symmetry not used in FoFCou.
          Solving linear equations simultaneously, MaxMat=       0.
          There are    24 degrees of freedom in the 1st order CPHF.  IDoFFX=6 NUNeed=     3.
     21 vectors produced by pass  0 Test12= 4.99D-15 4.17D-09 XBig12= 2.43D+01 2.39D+00.
 AX will form    21 AO Fock derivatives at one time.
     21 vectors produced by pass  1 Test12= 4.99D-15 4.17D-09 XBig12= 2.07D+00 3.35D-01.
     21 vectors produced by pass  2 Test12= 4.99D-15 4.17D-09 XBig12= 1.31D-01 1.08D-01.
     21 vectors produced by pass  3 Test12= 4.99D-15 4.17D-09 XBig12= 1.13D-03 6.22D-03.
     21 vectors produced by pass  4 Test12= 4.99D-15 4.17D-09 XBig12= 7.30D-06 4.52D-04.
     21 vectors produced by pass  5 Test12= 4.99D-15 4.17D-09 XBig12= 3.81D-08 3.07D-05.
     18 vectors produced by pass  6 Test12= 4.99D-15 4.17D-09 XBig12= 1.62D-10 1.98D-06.
      6 vectors produced by pass  7 Test12= 4.99D-15 4.17D-09 XBig12= 6.60D-13 1.34D-07.
      3 vectors produced by pass  8 Test12= 4.99D-15 4.17D-09 XBig12= 2.61D-15 7.08D-09.
 InvSVY:  IOpt=1 It=  1 EMax= 5.77D-15
 Solved reduced A of dimension   153 with    24 vectors.
 FullF1:  Do perturbations    1 to     3.
 Isotropic polarizability for W=    0.000000       24.88 Bohr**3.
 End of Minotr F.D. properties file   721 does not exist.
 End of Minotr F.D. properties file   722 does not exist.
 End of Minotr F.D. properties file   788 does not exist.
 Leave Link 1002 at Mon Aug 16 22:46:03 2021, MaxMem=   134217728 cpu:        70.1
 (Enter /soft/gaussian/09-e.01/g09/l601.exe)
 Copying SCF densities to generalized density rwf, IOpCl= 1 IROHF=0.

 **********************************************************************

            Population analysis using the SCF density.

 **********************************************************************

 Alpha  occ. eigenvalues --  -19.67785 -10.61389 -10.56370  -1.17871  -0.85621
 Alpha  occ. eigenvalues --   -0.68615  -0.57198  -0.56105  -0.52574  -0.47064
 Alpha  occ. eigenvalues --   -0.40200  -0.36749  -0.25401
 Alpha virt. eigenvalues --    0.10806   0.14221   0.15131   0.18043   0.25082
 Alpha virt. eigenvalues --    0.29291   0.46576   0.51066   0.52458   0.54922
 Alpha virt. eigenvalues --    0.59568   0.65407   0.67555   0.68366   0.70256
 Alpha virt. eigenvalues --    0.72851   0.88438   0.91201   0.91945   1.01653
 Alpha virt. eigenvalues --    1.08538   1.11876   1.16779   1.24117   1.43497
 Alpha virt. eigenvalues --    1.48285   1.51030   1.57678   1.58542   1.64269
 Alpha virt. eigenvalues --    1.67741   1.73175   1.79088   1.82768   1.85283
 Alpha virt. eigenvalues --    1.90850   1.98838   2.08651   2.18386   2.19662
 Alpha virt. eigenvalues --    2.31897   2.38991   2.53515   2.64282   2.70871
 Alpha virt. eigenvalues --    2.77567   3.09390   3.24768   3.35220
  Beta  occ. eigenvalues --  -19.66332 -10.61515 -10.55601  -1.12313  -0.81601
  Beta  occ. eigenvalues --   -0.65289  -0.54492  -0.50903  -0.48095  -0.45544
  Beta  occ. eigenvalues --   -0.33923
  Beta virt. eigenvalues --   -0.08055   0.00602   0.10168   0.14596   0.15170
  Beta virt. eigenvalues --    0.18688   0.25312   0.30300   0.46899   0.52837
  Beta virt. eigenvalues --    0.54011   0.58101   0.60295   0.64618   0.68722
  Beta virt. eigenvalues --    0.70533   0.72676   0.73818   0.91060   0.92308
  Beta virt. eigenvalues --    0.94888   1.06318   1.11359   1.14439   1.18063
  Beta virt. eigenvalues --    1.24611   1.44940   1.49875   1.53187   1.59190
  Beta virt. eigenvalues --    1.60804   1.65154   1.68397   1.74767   1.80787
  Beta virt. eigenvalues --    1.84824   1.87490   1.92825   2.00501   2.10080
  Beta virt. eigenvalues --    2.20442   2.21206   2.33486   2.40378   2.56965
  Beta virt. eigenvalues --    2.67545   2.75695   2.82693   3.13019   3.26419
  Beta virt. eigenvalues --    3.37764
          Condensed to atoms (all electrons):
               1          2          3          4          5          6
     1  O    7.846471   0.443750  -0.049926  -0.040867  -0.028771   0.002370
     2  C    0.443750   4.389448   0.396402   0.383807   0.339793  -0.017560
     3  C   -0.049926   0.396402   5.181557  -0.063924  -0.079109   0.377949
     4  H   -0.040867   0.383807  -0.063924   0.728938  -0.041842   0.008221
     5  H   -0.028771   0.339793  -0.079109  -0.041842   0.721148   0.000586
     6  H    0.002370  -0.017560   0.377949   0.008221   0.000586   0.595642
     7  H    0.003123  -0.011641   0.374340  -0.002074  -0.000566  -0.029779
               7
     1  O    0.003123
     2  C   -0.011641
     3  C    0.374340
     4  H   -0.002074
     5  H   -0.000566
     6  H   -0.029779
     7  H    0.608231
          Atomic-Atomic Spin Densities.
               1          2          3          4          5          6
     1  O    0.940460  -0.037585  -0.001495   0.002605  -0.036709   0.000109
     2  C   -0.037585  -0.104588  -0.036488   0.010586   0.051845  -0.000046
     3  C   -0.001495  -0.036488   1.229393   0.003374  -0.102771   0.003974
     4  H    0.002605   0.010586   0.003374   0.044798  -0.033693  -0.000390
     5  H   -0.036709   0.051845  -0.102771  -0.033693   0.333658  -0.000569
     6  H    0.000109  -0.000046   0.003974  -0.000390  -0.000569  -0.051850
     7  H   -0.000106  -0.001454   0.002846  -0.001040   0.003180   0.002642
               7
     1  O   -0.000106
     2  C   -0.001454
     3  C    0.002846
     4  H   -0.001040
     5  H    0.003180
     6  H    0.002642
     7  H   -0.049503
 Mulliken charges and spin densities:
               1          2
     1  O   -0.176150   0.867279
     2  C    0.076001  -0.117730
     3  C   -0.137289   1.098833
     4  H    0.027741   0.026241
     5  H    0.088761   0.214941
     6  H    0.062571  -0.046129
     7  H    0.058366  -0.043434
 Sum of Mulliken charges =  -0.00000   2.00000
 Mulliken charges and spin densities with hydrogens summed into heavy atoms:
               1          2
     1  O   -0.176150   0.867279
     2  C    0.192503   0.123451
     3  C   -0.016353   1.009270
 APT charges:
               1
     1  O   -0.241561
     2  C    0.248917
     3  C   -0.059573
     4  H   -0.048501
     5  H    0.037031
     6  H    0.035863
     7  H    0.027824
 Sum of APT charges =  -0.00000
 APT charges with hydrogens summed into heavy atoms:
               1
     1  O   -0.241561
     2  C    0.237447
     3  C    0.004115
 Electronic spatial extent (au):  <R**2>=            166.1972
 Charge=             -0.0000 electrons
 Dipole moment (field-independent basis, Debye):
    X=             -1.5817    Y=              0.9503    Z=              0.5003  Tot=              1.9119
 Quadrupole moment (field-independent basis, Debye-Ang):
   XX=            -20.1482   YY=            -17.7419   ZZ=            -18.4884
   XY=              0.1423   XZ=             -0.3164   YZ=              0.1047
 Traceless Quadrupole moment (field-independent basis, Debye-Ang):
   XX=             -1.3554   YY=              1.0509   ZZ=              0.3044
   XY=              0.1423   XZ=             -0.3164   YZ=              0.1047
 Octapole moment (field-independent basis, Debye-Ang**2):
  XXX=              5.3098  YYY=             -2.6787  ZZZ=              0.2767  XYY=              1.9938
  XXY=              0.6451  XXZ=              0.4035  XZZ=              4.7549  YZZ=             -0.1875
  YYZ=             -0.1968  XYZ=              0.4073
 Hexadecapole moment (field-independent basis, Debye-Ang**3):
 XXXX=           -138.8417 YYYY=            -44.6145 ZZZZ=            -24.6182 XXXY=             -5.4390
 XXXZ=              0.2955 YYYX=             -1.2275 YYYZ=             -0.8443 ZZZX=             -0.8219
 ZZZY=              0.6811 XXYY=            -30.3744 XXZZ=            -29.1901 YYZZ=            -11.9641
 XXYZ=             -0.2361 YYXZ=             -0.7551 ZZXY=             -1.5872
 N-N= 6.866520530335D+01 E-N=-4.966484069443D+02  KE= 1.528368642013D+02
  Exact polarizability:  29.608  -0.220  25.826  -0.615  -0.380  19.201
 Approx polarizability:  31.048  -2.485  27.378  -1.012   0.184  21.786
                          Isotropic Fermi Contact Couplings
        Atom                 a.u.       MegaHertz       Gauss      10(-4) cm-1
     1  O(17)              0.13900     -42.13076     -15.03330     -14.05331
     2  C(13)             -0.05990     -33.67078     -12.01457     -11.23136
     3  C(13)              0.18593     104.51040      37.29191      34.86092
     4  H(1)               0.01438      32.13008      11.46481      10.71744
     5  H(1)               0.09533     213.06492      76.02686      71.07081
     6  H(1)              -0.01466     -32.77161     -11.69373     -10.93143
     7  H(1)              -0.01422     -31.77928     -11.33964     -10.60043
 --------------------------------------------------------
       Center         ----  Spin Dipole Couplings  ----
                      3XX-RR        3YY-RR        3ZZ-RR
 --------------------------------------------------------
     1   Atom       -1.448715     -1.075427      2.524143
     2   Atom        0.044035     -0.036429     -0.007606
     3   Atom       -0.484344     -0.511353      0.995697
     4   Atom       -0.003387      0.017209     -0.013822
     5   Atom        0.009746     -0.011241      0.001495
     6   Atom       -0.066123      0.076897     -0.010774
     7   Atom        0.041668     -0.028669     -0.012999
 --------------------------------------------------------
                        XY            XZ            YZ
 --------------------------------------------------------
     1   Atom        0.285679      0.782464      1.495552
     2   Atom       -0.030530      0.016702      0.006895
     3   Atom        0.025340      0.005490      0.220385
     4   Atom        0.002956     -0.000515     -0.011622
     5   Atom        0.005656     -0.001632      0.019432
     6   Atom        0.014638     -0.002034     -0.016775
     7   Atom       -0.073095      0.007233      0.006390
 --------------------------------------------------------


 ---------------------------------------------------------------------------------
              Anisotropic Spin Dipole Couplings in Principal Axis System
 ---------------------------------------------------------------------------------

       Atom             a.u.   MegaHertz   Gauss  10(-4) cm-1        Axes

              Baa    -1.6161   116.942    41.728    39.008 -0.1460  0.9389 -0.3116
     1 O(17)  Bbb    -1.5971   115.567    41.237    38.549  0.9735  0.0804 -0.2140
              Bcc     3.2133  -232.509   -82.965   -77.557  0.1759  0.3346  0.9258
 
              Baa    -0.0502    -6.730    -2.401    -2.245  0.3405  0.8978 -0.2792
     2 C(13)  Bbb    -0.0071    -0.950    -0.339    -0.317 -0.1077  0.3322  0.9370
              Bcc     0.0572     7.680     2.741     2.562  0.9340 -0.2890  0.2099
 
              Baa    -0.5517   -74.033   -26.417   -24.695 -0.3397  0.9313 -0.1314
     3 C(13)  Bbb    -0.4756   -63.824   -22.774   -21.289  0.9405  0.3354 -0.0538
              Bcc     1.0273   137.856    49.191    45.984  0.0060  0.1419  0.9899
 
              Baa    -0.0177    -9.447    -3.371    -3.151 -0.0316  0.3181  0.9475
     4 H(1)   Bbb    -0.0037    -1.989    -0.710    -0.664  0.9924 -0.1026  0.0675
              Bcc     0.0214    11.436     4.081     3.815  0.1187  0.9425 -0.3124
 
              Baa    -0.0262   -13.967    -4.984    -4.659 -0.1528  0.8045 -0.5740
     5 H(1)   Bbb     0.0099     5.288     1.887     1.764  0.9329 -0.0743 -0.3524
              Bcc     0.0163     8.679     3.097     2.895  0.3262  0.5893  0.7392
 
              Baa    -0.0676   -36.072   -12.872   -12.032  0.9950 -0.1001  0.0061
     6 H(1)   Bbb    -0.0139    -7.398    -2.640    -2.468  0.0121  0.1798  0.9836
              Bcc     0.0815    43.471    15.511    14.500  0.0995  0.9786 -0.1801
 
              Baa    -0.0760   -40.538   -14.465   -13.522  0.5286  0.8363 -0.1456
     7 H(1)   Bbb    -0.0117    -6.248    -2.230    -2.084  0.0545  0.1377  0.9890
              Bcc     0.0877    46.787    16.695    15.606  0.8471 -0.5307  0.0272
 

 ---------------------------------------------------------------------------------

 No NMR shielding tensors so no spin-rotation constants.
 Leave Link  601 at Mon Aug 16 22:46:03 2021, MaxMem=   134217728 cpu:         2.7
 (Enter /soft/gaussian/09-e.01/g09/l701.exe)
 Compute integral second derivatives.
 ... and contract with generalized density number  0.
 Entering OneElI...
 Calculate overlap and kinetic energy integrals
    NBasis =  65  MinDer = 2  MaxDer = 2
 Requested accuracy = 0.1000D-12
 PrsmSu:  NPrtUS=  10 ThrOK=T IAlg=1 NPAlg=1 LenDen=           0.
 Prism:   IPart=     0 DynPar=F LinDyn=F Incr=           1.
 PRISM was handed    13393151 working-precision words and   465 shell-pairs
 PRISM was handed    13393151 working-precision words and   465 shell-pairs
 PRISM was handed    13393151 working-precision words and   465 shell-pairs
 PRISM was handed    13393151 working-precision words and   465 shell-pairs
 PRISM was handed    13393151 working-precision words and   465 shell-pairs
 PRISM was handed    13393151 working-precision words and   465 shell-pairs
 PRISM was handed    13393151 working-precision words and   465 shell-pairs
 PRISM was handed    13393151 working-precision words and   465 shell-pairs
 PRISM was handed    13393151 working-precision words and   465 shell-pairs
 PRISM was handed    13393151 working-precision words and   465 shell-pairs
 IPart=  8 NShTot=          35 NBatch=          15 AvBLen=         2.3
 IPart=  9 NShTot=          31 NBatch=          13 AvBLen=         2.4
 IPart=  6 NShTot=          41 NBatch=          17 AvBLen=         2.4
 IPart=  4 NShTot=          48 NBatch=          24 AvBLen=         2.0
 IPart=  2 NShTot=          51 NBatch=          26 AvBLen=         2.0
 IPart=  7 NShTot=          40 NBatch=          16 AvBLen=         2.5
 IPart=  5 NShTot=          44 NBatch=          20 AvBLen=         2.2
 IPart=  3 NShTot=          50 NBatch=          25 AvBLen=         2.0
 IPart=  1 NShTot=          57 NBatch=          29 AvBLen=         2.0
 IPart=  0 NShTot=          68 NBatch=          37 AvBLen=         1.8
 PrSmSu:  NxtVal=             11.
 Entering OneElI...
 Calculate potential energy integrals
    NBasis =  65  MinDer = 2  MaxDer = 2
 Requested accuracy = 0.1000D-12
 PrsmSu:  NPrtUS=  10 ThrOK=T IAlg=1 NPAlg=1 LenDen=           0.
 Prism:   IPart=     0 DynPar=F LinDyn=F Incr=           3.
 PRISM was handed    13395819 working-precision words and   464 shell-pairs
 PRISM was handed    13395819 working-precision words and   464 shell-pairs
 PRISM was handed    13395819 working-precision words and   464 shell-pairs
 PRISM was handed    13395819 working-precision words and   464 shell-pairs
 PRISM was handed    13395819 working-precision words and   464 shell-pairs
 PRISM was handed    13395819 working-precision words and   464 shell-pairs
 PRISM was handed    13395819 working-precision words and   464 shell-pairs
 PRISM was handed    13395819 working-precision words and   464 shell-pairs
 PRISM was handed    13395819 working-precision words and   464 shell-pairs
 PRISM was handed    13395819 working-precision words and   464 shell-pairs
 IPart=  6 NShTot=         266 NBatch=          38 AvBLen=         7.0
 IPart=  8 NShTot=         238 NBatch=          34 AvBLen=         7.0
 IPart=  2 NShTot=         385 NBatch=          55 AvBLen=         7.0
 IPart=  4 NShTot=         329 NBatch=          47 AvBLen=         7.0
 IPart=  0 NShTot=         497 NBatch=          71 AvBLen=         7.0
 IPart=  3 NShTot=         357 NBatch=          51 AvBLen=         7.0
 IPart=  1 NShTot=         406 NBatch=          58 AvBLen=         7.0
 IPart=  5 NShTot=         294 NBatch=          42 AvBLen=         7.0
 IPart=  7 NShTot=         266 NBatch=          38 AvBLen=         7.0
 IPart=  9 NShTot=         210 NBatch=          30 AvBLen=         7.0
 PrSmSu:  NxtVal=             31.
 Polarizability after L701:
                1             2             3 
      1  0.296077D+02
      2 -0.219746D+00  0.258255D+02
      3 -0.615487D+00 -0.379598D+00  0.192005D+02
 Dipole Derivatives after L701:
                 1             2             3             4             5 
      1  -0.161633D+00 -0.744402D-01 -0.145199D-01  0.110316D-01  0.468799D-01
      2   0.444621D-01 -0.292920D+00  0.304855D-01 -0.433747D-01  0.340605D+00
      3  -0.125166D+00  0.609333D-01 -0.270130D+00  0.188420D+00 -0.118816D+00
                 6             7             8             9            10 
      1   0.130359D+00  0.714782D-01 -0.134230D-01 -0.801982D-01 -0.496218D-04
      2  -0.167244D+00 -0.644352D-01  0.105324D-01 -0.520437D-01  0.194413D-01
      3   0.395114D+00 -0.124347D-01 -0.729547D-01 -0.260729D+00  0.560401D-02
                11            12            13            14            15 
      1  -0.120075D-02  0.305648D-01  0.969372D-01  0.298526D-01 -0.117485D+00
      2  -0.141440D+00  0.176895D+00  0.293815D-01  0.117374D+00 -0.425610D-01
      3   0.124607D+00 -0.401442D-02 -0.454280D-01 -0.368784D-01 -0.103218D+00
                16            17            18            19            20 
      1   0.151842D-01 -0.319381D-01  0.154525D-01 -0.329482D-01  0.442695D-01
      2   0.117221D-01 -0.295309D-01  0.437223D-01  0.280288D-02 -0.462085D-02
      3  -0.707936D-02  0.281408D-01  0.121935D+00 -0.391545D-02  0.149683D-01
                21 
      1   0.358265D-01
      2   0.107455D-01
      3   0.121042D+00
 Hessian after L701:
                1             2             3             4             5 
      1  0.825503D-01
      2  0.430520D+01  0.612232D+01
      3  0.135297D+00 -0.157088D-01  0.869053D+01
      4 -0.108684D+01 -0.451472D+01  0.339026D-01  0.679492D+01
      5 -0.456326D+01 -0.604339D+01  0.102621D+00  0.264179D+01  0.139049D+02
      6  0.118800D+00  0.413933D-01 -0.856274D+01  0.530530D+00  0.201285D+00
      7  0.783485D+00  0.257006D+00 -0.684492D-01 -0.379778D+00  0.207674D+01
      8  0.215567D+00 -0.293794D+00  0.499253D-04  0.208569D+01 -0.426938D+01
      9 -0.969398D-01  0.454762D-02 -0.282201D+00 -0.108953D+00 -0.143459D-02
     10 -0.121039D+00  0.567002D-01  0.962217D-02 -0.294902D+01 -0.108503D+00
     11  0.169303D-01  0.286703D+00 -0.156411D+00 -0.137276D+00 -0.113502D+01
     12  0.227529D-01 -0.156782D+00  0.899251D-01  0.804293D-01 -0.775360D+00
     13  0.625008D-01 -0.765041D-01 -0.118694D+00 -0.252945D+01 -0.112291D+00
     14 -0.408745D-01 -0.143166D-01  0.731470D-01 -0.166032D+00 -0.249588D+01
     15 -0.160449D+00  0.128951D+00  0.169909D+00 -0.543988D+00  0.482294D+00
     16  0.119873D+00  0.305113D-01  0.115659D-02  0.316528D-01  0.208266D-01
     17  0.136466D+00 -0.369639D-01 -0.168055D-02  0.133655D+00  0.690781D-01
     18 -0.213293D-01 -0.682593D-03 -0.660211D-01 -0.631671D-02 -0.122865D-01
     19  0.159469D+00 -0.581951D-01  0.716515D-02  0.118504D+00  0.446941D-01
     20 -0.700290D-01 -0.205631D-01 -0.201791D-02 -0.431085D-01 -0.303082D-01
     21  0.186851D-02 -0.171761D-02 -0.394095D-01  0.143957D-01  0.288129D-02
                6             7             8             9            10 
      6  0.169052D+02
      7 -0.231370D+00  0.381761D+01
      8 -0.386693D-01 -0.135914D+01  0.759966D+01
      9 -0.479297D+01  0.125808D+00  0.250800D+00  0.984216D+01
     10  0.645248D-01  0.219121D-01 -0.117793D+00  0.628588D-02  0.298579D+01
     11 -0.744489D+00 -0.911996D-01 -0.532886D-01 -0.235661D-01  0.139753D+00
     12 -0.258039D+01  0.366844D-02 -0.709315D-02  0.117174D+00 -0.845306D-01
     13 -0.482142D+00  0.176800D-02 -0.316508D-01  0.621631D-01  0.643148D-01
     14  0.552208D+00 -0.160133D-01  0.686851D-01  0.108847D+00 -0.867901D-02
     15 -0.882258D+00  0.119560D+00  0.125383D+00  0.322583D+00  0.149929D-01
     16  0.772484D-02 -0.278952D+01  0.102434D+00 -0.223673D-01 -0.507898D-02
     17 -0.129193D-01 -0.760219D-01 -0.947011D+00 -0.326703D+00  0.412700D-01
     18 -0.320750D-01  0.769186D-02 -0.308686D+00 -0.261175D+01 -0.964254D-02
     19 -0.806789D-02 -0.145547D+01 -0.895105D+00  0.340027D-01  0.311654D-02
     20  0.119256D-02 -0.791373D+00 -0.210487D+01 -0.124914D-01 -0.274731D-02
     21 -0.547670D-01  0.430903D-01 -0.217852D-01 -0.259499D+01 -0.125261D-02
               11            12            13            14            15 
     11  0.760934D+00
     12  0.918423D+00  0.244504D+01
     13  0.169414D-02  0.379011D-03  0.240386D+01
     14  0.560855D-01  0.520540D-01  0.213966D+00  0.237337D+01
     15  0.342201D-01 -0.546535D-01  0.535094D+00 -0.792031D+00  0.449073D+00
     16  0.492670D-01 -0.157428D-01 -0.434914D-02  0.109511D-01  0.819938D-02
     17  0.935283D-01 -0.345267D-01  0.364969D-02  0.185605D-01  0.283426D-01
     18 -0.253085D-01 -0.132298D-01  0.219164D-02  0.574427D-02 -0.610033D-02
     19  0.208312D-01 -0.695627D-02  0.135000D-02  0.668136D-02  0.265913D-01
     20 -0.894690D-02  0.328559D-02  0.113563D-02 -0.650395D-02 -0.715969D-02
     21 -0.286796D-02 -0.386527D-02  0.100895D-02  0.309713D-04  0.144687D-02
               16            17            18            19            20 
     16  0.261168D+01
     17 -0.272094D+00  0.839095D+00
     18  0.312048D-01  0.333294D+00  0.269031D+01
     19  0.357400D-01  0.330756D-01 -0.379970D-02  0.113729D+01
     20  0.581039D-01 -0.362869D-01  0.792483D-02  0.848018D+00  0.220748D+01
     21 -0.101755D-01  0.141924D-01  0.388622D-01 -0.489353D-01  0.926607D-02
               21 
     21  0.265272D+01
 Leave Link  701 at Mon Aug 16 22:46:03 2021, MaxMem=   134217728 cpu:         1.6
 (Enter /soft/gaussian/09-e.01/g09/l702.exe)
 L702 exits ... SP integral derivatives will be done elsewhere.
 Leave Link  702 at Mon Aug 16 22:46:04 2021, MaxMem=   134217728 cpu:         0.1
 (Enter /soft/gaussian/09-e.01/g09/l703.exe)
 Compute integral second derivatives, UseDBF=F ICtDFT=           0.
 Integral derivatives from FoFJK, PRISM(SPDF).
 ICntrl=    100127.
 Calling FoFJK, ICntrl=    100127 FMM=F ISym2X=0 I1Cent= 0 IOpClX= 1 NMat=1 NMatS=1 NMatT=0.
 FoFJK:  IHMeth= 1 ICntrl=  100127 DoSepK=F KAlg= 0 I1Cent=   0 FoldK=F
 IRaf=         0 NMat=   1 IRICut=       1 DoRegI=T DoRafI=F ISym2E= 0.
 FoFCou: FMM=F IPFlag=           0 FMFlag=      100000 FMFlg1=         800
         NFxFlg=           0 DoJE=F BraDBF=F KetDBF=F FulRan=T
         wScrn=  0.000000 ICntrl=  100127 IOpCl=  1 I1Cent=           0 NGrid=           0
         NMat0=    1 NMatS0=      1 NMatT0=    0 NMatD0=    1 NMtDS0=    0 NMtDT0=    0
 Symmetry not used in FoFCou.
 FoFCou:  KetSym=F NOpSet=  1 NOpAb=1 NOp=  1.
 FoFCou:  CnvScl= 1.00D+00 Thresh= 1.00D-10 IAcrcy=      10.
 PrismS was handed   134153917 working-precision words and   465 shell-pairs
 FoFCou: LinMIO=F DoNuc=F BraDBF=F KetDBF=F HaveP=T PDBF=F HaveZ=T HaveW=F
         NIJTC =       6 NIJTAt=       0 NIJTCD=       0 NIJTT =       6
         IJTBeg=       1 IJTEnd=       6 KLTBeg=       1 KLTEnd=       6
         IPTBeg=       1 IPTEnd=       6 IPTBCv=       1 IPTECv=       6
         IZTBeg=       1 IZTEnd=       6 IZTBCv=       1 IZTECv=       6
         IWTBeg=       7 IWTEnd=       6 IWTBCv=       7 IWTECv=       6
         INTBeg=       1 INTEnd=       0 IFTBCv=       1 IFTECv=       6
 NCel replicated for PrismC:     1
 CoulSu:  IncDef=  1024 NBBP=         108345 NTPThr=   100 NPartT=   10 Incr=         108 LDynOK=F.
 CoulSu:  NPrtUS=  10 ThrOK=T IAlg=1 NPAlg=1 LenDen=           0 LWGrdD=           0 DoCopy=F.
 Enter PrismC: JobTyp=22 DoJE=F Cont=F.
 PrismC:  IPart=     0 DynPar=F LinDyn=F Incr=         108 UseFst=F UseS4=T IGathr=2.
 PrismC was handed    13394581 working-precision words and   465 shell-pairs
 Enter PrismC: JobTyp=22 DoJE=F Cont=F.
 Enter PrismC: JobTyp=22 DoJE=F Cont=F.
 PrismC was handed    13394581 working-precision words and   465 shell-pairs
 PrismC was handed    13394581 working-precision words and   465 shell-pairs
 Enter PrismC: JobTyp=22 DoJE=F Cont=F.
 PrismC was handed    13394581 working-precision words and   465 shell-pairs
 Enter PrismC: JobTyp=22 DoJE=F Cont=F.
 PrismC was handed    13394581 working-precision words and   465 shell-pairs
 Enter PrismC: JobTyp=22 DoJE=F Cont=F.
 PrismC was handed    13394581 working-precision words and   465 shell-pairs
 Enter PrismC: JobTyp=22 DoJE=F Cont=F.
 Enter PrismC: JobTyp=22 DoJE=F Cont=F.
 PrismC was handed    13394581 working-precision words and   465 shell-pairs
 Enter PrismC: JobTyp=22 DoJE=F Cont=F.
 PrismC was handed    13394581 working-precision words and   465 shell-pairs
 PrismC was handed    13394581 working-precision words and   465 shell-pairs
 Enter PrismC: JobTyp=22 DoJE=F Cont=F.
 PrismC was handed    13394581 working-precision words and   465 shell-pairs
 IPart=  9 NShTot=       10300 NShNF=       10300 NShFF=           0 NBatch=         754 AvBLen=        13.7
 IPart=  8 NShTot=       10383 NShNF=       10383 NShFF=           0 NBatch=         785 AvBLen=        13.2
 IPart=  6 NShTot=       10460 NShNF=       10460 NShFF=           0 NBatch=         795 AvBLen=        13.2
 IPart=  7 NShTot=       10448 NShNF=       10448 NShFF=           0 NBatch=         789 AvBLen=        13.2
 IPart=  5 NShTot=       10589 NShNF=       10589 NShFF=           0 NBatch=         851 AvBLen=        12.4
 IPart=  4 NShTot=       10697 NShNF=       10697 NShFF=           0 NBatch=         900 AvBLen=        11.9
 IPart=  3 NShTot=       10774 NShNF=       10774 NShFF=           0 NBatch=         942 AvBLen=        11.4
 IPart=  2 NShTot=       10814 NShNF=       10814 NShFF=           0 NBatch=         958 AvBLen=        11.3
 IPart=  1 NShTot=       10883 NShNF=       10883 NShFF=           0 NBatch=         974 AvBLen=        11.2
 IPart=  0 NShTot=       11193 NShNF=       11193 NShFF=           0 NBatch=        1062 AvBLen=        10.5
 CoulSu:  NxtVal=           1081.
 ReadGW:  IGet=0 IStart=           1 Next=           1 LGW=           0.
 Remaining memory in FofDFT      127.99 Mw
 CkSvGd:  ISavGI=        -1 IRadAn=       5 IRASav=       5 ISavGd=        -1.
 CalDSu:  NPrtUS=  10 ThrOK=T IAlg=1 NPAlg=2 DoDPD=T LenP=        2145 LenD1P=             0.
 IPart=  0 IRanGd=          0 ScrnBf=T ScrnGd=T RCrit=4.00D+00 DoMicB=T.
 IPart=  2        13969 of        15038 points in      13 batches and       83 microbatches, Max-NSigAt=       7 Max-NSgAt2=       7
 IPart=  8        17450 of        19274 points in      17 batches and       80 microbatches, Max-NSigAt=       7 Max-NSgAt2=       7
 IPart=  9        13314 of        14594 points in      15 batches and      113 microbatches, Max-NSigAt=       7 Max-NSgAt2=       7
 IPart=  1        13322 of        14356 points in      14 batches and      105 microbatches, Max-NSigAt=       7 Max-NSgAt2=       7
 IPart=  4        15088 of        16380 points in      15 batches and       81 microbatches, Max-NSigAt=       7 Max-NSgAt2=       7
 IPart=  5        13641 of        14820 points in      15 batches and       90 microbatches, Max-NSigAt=       7 Max-NSgAt2=       7
 IPart=  6        13882 of        14616 points in      13 batches and       83 microbatches, Max-NSigAt=       7 Max-NSgAt2=       7
 IPart=  3        13424 of        14720 points in      13 batches and       79 microbatches, Max-NSigAt=       7 Max-NSgAt2=       7
 IPart=  0        14235 of        15008 points in      13 batches and       76 microbatches, Max-NSigAt=       7 Max-NSgAt2=       7
 IPart=  7        13625 of        14434 points in      12 batches and       84 microbatches, Max-NSigAt=       7 Max-NSgAt2=       7
 Polarizability after L703:
                1             2             3 
      1  0.296077D+02
      2 -0.219746D+00  0.258255D+02
      3 -0.615487D+00 -0.379598D+00  0.192005D+02
 Dipole Derivatives after L703:
                 1             2             3             4             5 
      1  -0.161633D+00 -0.744402D-01 -0.145199D-01  0.110316D-01  0.468799D-01
      2   0.444621D-01 -0.292920D+00  0.304855D-01 -0.433747D-01  0.340605D+00
      3  -0.125166D+00  0.609333D-01 -0.270130D+00  0.188420D+00 -0.118816D+00
                 6             7             8             9            10 
      1   0.130359D+00  0.714782D-01 -0.134230D-01 -0.801982D-01 -0.496218D-04
      2  -0.167244D+00 -0.644352D-01  0.105324D-01 -0.520437D-01  0.194413D-01
      3   0.395114D+00 -0.124347D-01 -0.729547D-01 -0.260729D+00  0.560401D-02
                11            12            13            14            15 
      1  -0.120075D-02  0.305648D-01  0.969372D-01  0.298526D-01 -0.117485D+00
      2  -0.141440D+00  0.176895D+00  0.293815D-01  0.117374D+00 -0.425610D-01
      3   0.124607D+00 -0.401442D-02 -0.454280D-01 -0.368784D-01 -0.103218D+00
                16            17            18            19            20 
      1   0.151842D-01 -0.319381D-01  0.154525D-01 -0.329482D-01  0.442695D-01
      2   0.117221D-01 -0.295309D-01  0.437223D-01  0.280288D-02 -0.462085D-02
      3  -0.707936D-02  0.281408D-01  0.121935D+00 -0.391545D-02  0.149683D-01
                21 
      1   0.358265D-01
      2   0.107455D-01
      3   0.121042D+00
 Hessian after L703:
                1             2             3             4             5 
      1  0.365258D+00
      2 -0.208925D+00  0.171708D+00
      3 -0.109410D-01 -0.339835D-02  0.236244D-01
      4 -0.280422D+00  0.156838D+00  0.779462D-02  0.555028D+00
      5  0.155192D+00 -0.152815D+00  0.144645D-01 -0.713046D-01  0.523390D+00
      6 -0.238943D-01  0.323657D-01 -0.311112D-01  0.867455D-02 -0.113564D+00
      7 -0.523312D-01  0.505918D-02  0.386626D-03 -0.205499D+00 -0.900342D-01
      8  0.180455D-01  0.227838D-01  0.230849D-02 -0.790619D-01 -0.143691D+00
      9  0.128926D-01 -0.135887D-02  0.487006D-02 -0.413773D-01 -0.349891D-02
     10 -0.106755D-01  0.347600D-01 -0.179111D-01 -0.478389D-01 -0.538991D-02
     11  0.229510D-01 -0.239018D-01  0.672657D-02 -0.144548D-01 -0.203395D+00
     12 -0.512944D-02 -0.766994D-02  0.741631D-02  0.139030D-01  0.112153D+00
     13 -0.228015D-01  0.123426D-01  0.197945D-01 -0.829042D-02  0.215410D-01
     14  0.147406D-01 -0.195642D-01 -0.200819D-01  0.197904D-01 -0.226593D-01
     15  0.313571D-01 -0.218502D-01 -0.508708D-02  0.266238D-02 -0.822808D-02
     16  0.540885D-02  0.176950D-02  0.176061D-03 -0.244098D-03 -0.255880D-01
     17  0.222956D-03  0.251409D-02 -0.374614D-03  0.398492D-02 -0.999567D-02
     18 -0.137899D-02  0.193108D-02 -0.434584D-03  0.323324D-02 -0.334035D-02
     19 -0.443707D-02 -0.184499D-02  0.700223D-03 -0.127334D-01  0.155837D-01
     20 -0.222738D-02 -0.724462D-03  0.355331D-03 -0.157922D-01  0.916584D-02
     21 -0.290602D-02 -0.194807D-04  0.722061D-03  0.510948D-02  0.201432D-02
                6             7             8             9            10 
      6  0.315128D+00
      7 -0.144357D-01  0.587490D+00
      8  0.812073D-02 -0.143949D-01  0.633614D+00
      9 -0.309851D-01  0.396962D-01 -0.606741D-01  0.432492D-01
     10  0.103612D-01  0.951132D-03 -0.245399D-01  0.146275D-01  0.621650D-01
     11  0.992032D-01 -0.296521D-02 -0.136943D-01  0.100419D-01  0.464187D-03
     12 -0.957092D-01 -0.145077D-02 -0.763264D-02  0.907013D-02 -0.710928D-02
     13  0.149592D-01 -0.154361D-01 -0.231476D-01 -0.172318D-01 -0.212216D-02
     14 -0.279211D-01 -0.222396D-01 -0.125432D-01 -0.161077D-01 -0.483872D-02
     15 -0.158436D+00 -0.189450D-01 -0.149163D-01 -0.567156D-02  0.382913D-03
     16  0.710509D-02 -0.538257D-01 -0.129352D-01  0.178780D-02 -0.406409D-02
     17  0.457113D-02 -0.167926D-01 -0.340236D+00  0.584597D-01 -0.165962D-02
     18  0.202497D-02  0.679006D-03  0.629574D-01 -0.153927D-01  0.660045D-03
     19 -0.277002D-02 -0.261349D+00  0.136034D+00 -0.103950D-01  0.158452D-02
     20 -0.277534D-02  0.141367D+00 -0.146233D+00  0.131379D-01  0.120396D-02
     21 -0.911494D-03 -0.593036D-02  0.983645D-02 -0.514004D-02 -0.101124D-02
               11            12            13            14            15 
     11  0.239667D+00
     12 -0.113719D+00  0.101549D+00
     13 -0.325163D-02 -0.133057D-02  0.457587D-01
     14  0.888579D-03  0.166464D-01 -0.947061D-02  0.528323D-01
     15 -0.281569D-02 -0.216373D-01 -0.147192D-01  0.479393D-01  0.190751D+00
     16 -0.275020D-02 -0.825611D-03  0.486194D-03  0.343639D-03 -0.764470D-03
     17  0.159124D-03 -0.943065D-03  0.785786D-03  0.369796D-03 -0.269749D-03
     18  0.154462D-02  0.366158D-04 -0.284162D-03  0.490678D-03 -0.852300D-03
     19  0.673626D-05  0.194266D-02  0.240528D-02  0.167427D-02  0.262961D-04
     20  0.275825D-03  0.116561D-02  0.120037D-02  0.676011D-03  0.140706D-03
     21 -0.981278D-03 -0.725547D-03 -0.118798D-02 -0.965776D-03  0.933723D-03
               16            17            18            19            20 
     16  0.468329D-01
     17  0.181793D-01  0.353804D+00
     18 -0.340654D-02 -0.633695D-01  0.136455D-01
     19  0.540593D-02 -0.472076D-02  0.497407D-03  0.269124D+00
     20  0.209809D-01 -0.661522D-02 -0.213955D-03 -0.146733D+00  0.143455D+00
     21 -0.407232D-02  0.192603D-02  0.972436D-03  0.999844D-02 -0.118103D-01
               21 
     21  0.414886D-02
 Leave Link  703 at Mon Aug 16 22:46:08 2021, MaxMem=   134217728 cpu:        42.6
 (Enter /soft/gaussian/09-e.01/g09/l716.exe)
 FrcOut:
 IF    =    49 IFX   =    70 IFXYZ =    91
 IFFX  =   112 IFFFX =   343 IFLen =    21
 IFFLen=   231 IFFFLn=     0 IEDerv=   343
 LEDerv=  1061 IFroze=  1655 ICStrt=  9553
 Dipole        =-6.22301763D-01 3.73876666D-01 1.96848985D-01
 DipoleDeriv   =-1.61633320D-01 4.44620843D-02-1.25166188D-01
                -7.44401948D-02-2.92919679D-01 6.09332855D-02
                -1.45199222D-02 3.04855349D-02-2.70130265D-01
                 1.10315762D-02-4.33746983D-02 1.88419697D-01
                 4.68798704D-02 3.40604604D-01-1.18816058D-01
                 1.30359213D-01-1.67243611D-01 3.95114320D-01
                 7.14781759D-02-6.44351537D-02-1.24346692D-02
                -1.34229745D-02 1.05324439D-02-7.29547488D-02
                -8.01982206D-02-5.20437397D-02-2.60728558D-01
                -4.96217817D-05 1.94412865D-02 5.60401017D-03
                -1.20074638D-03-1.41440143D-01 1.24606838D-01
                 3.05647878D-02 1.76894979D-01-4.01441578D-03
                 9.69371792D-02 2.93814859D-02-4.54280383D-02
                 2.98525584D-02 1.17374492D-01-3.68784400D-02
                -1.17484836D-01-4.25609880D-02-1.03218338D-01
                 1.51841974D-02 1.17221110D-02-7.07936111D-03
                -3.19380562D-02-2.95308715D-02 2.81408487D-02
                 1.54524643D-02 4.37222927D-02 1.21934852D-01
                -3.29481870D-02 2.80288432D-03-3.91545095D-03
                 4.42695431D-02-4.62084614D-03 1.49682744D-02
                 3.58265136D-02 1.07455327D-02 1.21042404D-01
 Polarizability= 2.96077155D+01-2.19745793D-01 2.58255260D+01
                -6.15486663D-01-3.79598329D-01 1.92005038D+01
 VibFq2-Diag1:  N=     21 IV=           8 MDV=   134206323 NE2=     6390776
 Full mass-weighted force constant matrix:
 Low frequencies --- -239.4169 -138.9093  -98.5950   -0.0017   -0.0016   -0.0014
 Low frequencies ---  177.7148  339.2275  404.7213
 OrtVCM:  Ph=1 IPass= 1 DotMx1= 0.00D+00
 OrtVCM:  IS=    1 I=    1 IndO=    1 Dot= 1.00D+00 DotN= 1.00D+00 ElMax1= 6.03D-01 ElMax1N= 6.03D-01
 OrtVCM:  Ph=2 NNew=    0 IAdd=    2 IPass= 1 DotMx2= 0.00D+00
 OrtVCM:  IS=    1 I=    2 IndO=    2 Dot= 1.00D+00 DotN= 1.00D+00 ElMax1= 6.03D-01 ElMax1N= 6.03D-01
 OrtVCM:  Ph=2 NNew=    0 IAdd=    3 IPass= 1 DotMx2= 0.00D+00
 OrtVCM:  IS=    1 I=    3 IndO=    3 Dot= 1.00D+00 DotN= 1.00D+00 ElMax1= 6.03D-01 ElMax1N= 6.03D-01
 OrtVCM:  Ph=2 NNew=    0 IAdd=    4 IPass= 1 DotMx2= 1.39D-17
 OrtVCM:  IS=    1 I=    4 IndO=    4 Dot= 1.00D+00 DotN= 1.00D+00 ElMax1= 4.84D-01 ElMax1N= 4.84D-01
 OrtVCM:  Ph=2 NNew=    0 IAdd=    5 IPass= 1 DotMx2= 1.80D-16
 OrtVCM:  IS=    1 I=    5 IndO=    5 Dot= 1.00D+00 DotN= 1.00D+00 ElMax1= 6.60D-01 ElMax1N= 6.60D-01
 OrtVCM:  Ph=2 NNew=    0 IAdd=    6 IPass= 1 DotMx2= 5.55D-17
 OrtVCM:  IS=    1 I=    6 IndO=    6 Dot= 1.00D+00 DotN= 1.00D+00 ElMax1= 6.18D-01 ElMax1N= 6.18D-01
 OrtVCM:  Ph=1 IPass= 1 DotMx1= 6.60D-01
 OrtVCM:  Ph=1 IPass= 2 DotMx1= 2.43D-16
 OrtVCM:  IS=    1 I=    1 IndO=    7 Dot= 6.20D-01 DotN= 6.20D-01 ElMax1= 6.20D-01 ElMax1N= 6.20D-01
 OrtVCM:  Ph=2 NNew=    0 IAdd=    2 IPass= 1 DotMx2= 1.02D-01
 OrtVCM:  Ph=2 NNew=    0 IAdd=    2 IPass= 2 DotMx2= 1.26D-17
 OrtVCM:  IS=    1 I=    2 IndO=    8 Dot= 2.44D-01 DotN= 2.44D-01 ElMax1= 3.26D-01 ElMax1N= 3.26D-01
 OrtVCM:  Ph=2 NNew=    0 IAdd=    3 IPass= 1 DotMx2= 1.11D-02
 OrtVCM:  Ph=2 NNew=    0 IAdd=    3 IPass= 2 DotMx2= 5.64D-18
 OrtVCM:  IS=    1 I=    3 IndO=    9 Dot= 1.06D-01 DotN= 1.06D-01 ElMax1= 1.77D-01 ElMax1N= 1.77D-01
 OrtVCM:  Ph=2 NNew=    0 IAdd=    4 IPass= 1 DotMx2= 3.66D-01
 OrtVCM:  Ph=2 NNew=    0 IAdd=    4 IPass= 2 DotMx2= 6.06D-17
 OrtVCM:  IS=    1 I=    4 IndO=   10 Dot= 5.19D-01 DotN= 5.19D-01 ElMax1= 5.19D-01 ElMax1N= 5.19D-01
 OrtVCM:  Ph=2 NNew=    0 IAdd=    5 IPass= 1 DotMx2= 6.60D-01
 OrtVCM:  Ph=2 NNew=    0 IAdd=    5 IPass= 2 DotMx2= 2.08D-16
 OrtVCM:  IS=    1 I=    5 IndO=   11 Dot= 2.63D-01 DotN= 2.63D-01 ElMax1= 2.63D-01 ElMax1N= 2.63D-01
 OrtVCM:  Ph=2 NNew=    0 IAdd=    6 IPass= 1 DotMx2= 5.44D-01
 OrtVCM:  Ph=2 NNew=    0 IAdd=    6 IPass= 2 DotMx2= 1.39D-16
 OrtVCM:  IS=    1 I=    6 IndO=   12 Dot= 1.96D-01 DotN= 1.96D-01 ElMax1= 2.22D-01 ElMax1N= 2.22D-01
 OrtVCM:  Ph=2 NNew=    0 IAdd=    7 IPass= 1 DotMx2= 5.07D-01
 OrtVCM:  Ph=2 NNew=    0 IAdd=    7 IPass= 2 DotMx2= 9.53D-17
 OrtVCM:  IS=    1 I=    7 IndO=   13 Dot= 2.19D-01 DotN= 2.19D-01 ElMax1= 2.76D-01 ElMax1N= 2.76D-01
 OrtVCM:  Ph=2 NNew=    0 IAdd=    8 IPass= 1 DotMx2= 3.09D-01
 OrtVCM:  Ph=2 NNew=    0 IAdd=    8 IPass= 2 DotMx2= 1.03D-16
 OrtVCM:  IS=    1 I=    8 IndO=   14 Dot= 2.33D-01 DotN= 2.33D-01 ElMax1= 2.60D-01 ElMax1N= 2.60D-01
 OrtVCM:  Ph=2 NNew=    0 IAdd=    9 IPass= 1 DotMx2= 2.24D-01
 OrtVCM:  Ph=2 NNew=    0 IAdd=    9 IPass= 2 DotMx2= 4.86D-17
 OrtVCM:  IS=    1 I=    9 IndO=   15 Dot= 2.12D-01 DotN= 2.12D-01 ElMax1= 2.96D-01 ElMax1N= 2.96D-01
 OrtVCM:  Ph=2 NNew=    0 IAdd=   10 IPass= 1 DotMx2= 3.87D-01
 OrtVCM:  Ph=2 NNew=    0 IAdd=   10 IPass= 2 DotMx2= 1.67D-16
 OrtVCM:  IS=    1 I=   10 IndO=   16 Dot= 4.73D-01 DotN= 4.73D-01 ElMax1= 4.73D-01 ElMax1N= 4.73D-01
 OrtVCM:  Ph=2 NNew=    0 IAdd=   11 IPass= 1 DotMx2= 4.34D-01
 OrtVCM:  Ph=2 NNew=    0 IAdd=   11 IPass= 2 DotMx2= 2.01D-16
 OrtVCM:  IS=    1 I=   11 IndO=   17 Dot= 4.44D-01 DotN= 4.44D-01 ElMax1= 4.44D-01 ElMax1N= 4.44D-01
[...]
 Atom     4 has atomic number  1 and mass   1.00783
 Atom     5 has atomic number  1 and mass   1.00783
 Atom     6 has atomic number  1 and mass   1.00783
 Atom     7 has atomic number  1 and mass   1.00783
 Molecular mass:    44.02621 amu.
 Principal axes and moments of inertia in atomic units:
                           1         2         3
     Eigenvalues --    35.33908 174.37992 198.64887
           X            1.00000   0.00000  -0.00000
           Y           -0.00000   1.00000  -0.00000
           Z            0.00000   0.00000   1.00000
 This molecule is an asymmetric top.
 Rotational symmetry number  1.
 Rotational temperatures (Kelvin)      2.45094     0.49670     0.43601
 Rotational constants (GHZ):          51.06928    10.34948     9.08508
 Zero-point vibrational energy     131950.6 (Joules/Mol)
                                   31.53696 (Kcal/Mol)
 Warning -- explicit consideration of   3 degrees of freedom as
           vibrations may cause significant error
 Vibrational temperatures:    224.05   483.82   579.94  1204.08  1356.78
          (Kelvin)           1452.86  1675.17  1780.11  1903.53  2041.48
                             2098.34  3459.93  4204.89  4550.69  4724.33
 
 Zero-point correction=                           0.050257 (Hartree/Particle)
 Thermal correction to Energy=                    0.054613
 Thermal correction to Enthalpy=                  0.055557
 Thermal correction to Gibbs Free Energy=         0.023963
 Sum of electronic and zero-point Energies=           -153.563703
 Sum of electronic and thermal Energies=              -153.559348
 Sum of electronic and thermal Enthalpies=            -153.558404
 Sum of electronic and thermal Free Energies=         -153.589998
 
                     E (Thermal)             CV                S
                      KCal/Mol        Cal/Mol-Kelvin    Cal/Mol-Kelvin
 Total                   34.270             13.064             66.495
 Electronic               0.000              0.000              2.183
 Translational            0.889              2.981             37.273
 Rotational               0.889              2.981             21.731
 Vibrational             32.493              7.102              5.308
 Vibration     1          0.620              1.896              2.601
 Vibration     2          0.717              1.603              1.230
 Vibration     3          0.768              1.463              0.951
                       Q            Log10(Q)             Ln(Q)
 Total Bot       0.949955D-11        -11.022297        -25.379776
 Total V=0       0.124288D+13         12.094429         27.848453
 Vib (Bot)       0.220188D-22        -22.657206        -52.170144
 Vib (Bot)    1  0.129993D+01          0.113919          0.262309
 Vib (Bot)    2  0.553488D+00         -0.256892         -0.591516
 Vib (Bot)    3  0.441193D+00         -0.355371         -0.818272
 Vib (V=0)       0.288085D+01          0.459521          1.058085
 Vib (V=0)    1  0.189277D+01          0.277098          0.638042
 Vib (V=0)    2  0.124589D+01          0.095479          0.219848
 Vib (V=0)    3  0.116682D+01          0.067005          0.154284
 Electronic      0.300000D+01          0.477121          1.098612
 Translational   0.114821D+08          7.060022         16.256302
 Rotational      0.125246D+05          4.097765          9.435453
 
                                                               comment:
                                                             IR Spectrum
 
     3    3        2                   2                                    1 1  1   1 1     1                                       
     2    1        9                   4                                    4 4  3   2 1     0  9   8                4 3      1      
     8    6        2                   0                                    5 1  2   3 6     1  4   3                0 3      5      
     4    3        3                   5                                    8 9  3   7 4     0  3   7                3 6      6      
 
     X    X        X                   X                                    X X  X   X X     X  X   X                X X      X      
                   X                   X                                         X   X X     X  X                    X X             
                   X                   X                                         X     X                               X             
                   X                   X                                                                               X             
                   X                   X                                                                               X             
                   X                   X                                                                               X             
                   X                   X                                                                               X             
                   X                   X                                                                               X             
                   X                   X                                                                               X             
                   X                                                                                                                 
                   X                                                                                                                 
                   X                                                                                                                 
                   X                                                                                                                 
                   X                                                                                                                 
                   X                                                                                                                 
                   X                                                                                                                 
                   X                                                                                                                 
                   X                                                                                                                 
                   X                                                                                                                 
                   X                                                                                                                 
 
 -------------------------------------------------------------------
 Center     Atomic                   Forces (Hartrees/Bohr)
 Number     Number              X              Y              Z
 -------------------------------------------------------------------
      1        8           0.022137749   -0.023641378   -0.006689862
      2        6          -0.031173576    0.048872493    0.036306613
      3        6          -0.017905180   -0.027716885   -0.019154419
      4        1           0.003307146   -0.005424122   -0.003874967
      5        1           0.021804244    0.006939095   -0.004829123
      6        1          -0.000431439    0.001427214   -0.000026398
      7        1           0.002261056   -0.000456417   -0.001731844
 -------------------------------------------------------------------
 Cartesian Forces:  Max     0.048872493 RMS     0.019322770
 Z-matrix is all fixed cartesians, so copy forces.
 Force constants in Cartesian coordinates: 
                1             2             3             4             5 
      1  0.365258D+00
      2 -0.208925D+00  0.171708D+00
      3 -0.109410D-01 -0.339835D-02  0.236244D-01
      4 -0.280422D+00  0.156838D+00  0.779462D-02  0.555028D+00
      5  0.155192D+00 -0.152815D+00  0.144645D-01 -0.713046D-01  0.523390D+00
      6 -0.238943D-01  0.323657D-01 -0.311112D-01  0.867455D-02 -0.113564D+00
      7 -0.523312D-01  0.505918D-02  0.386626D-03 -0.205499D+00 -0.900342D-01
      8  0.180455D-01  0.227838D-01  0.230849D-02 -0.790619D-01 -0.143691D+00
      9  0.128926D-01 -0.135887D-02  0.487006D-02 -0.413773D-01 -0.349891D-02
     10 -0.106755D-01  0.347600D-01 -0.179111D-01 -0.478389D-01 -0.538991D-02
     11  0.229510D-01 -0.239018D-01  0.672657D-02 -0.144548D-01 -0.203395D+00
     12 -0.512944D-02 -0.766994D-02  0.741631D-02  0.139030D-01  0.112153D+00
     13 -0.228015D-01  0.123426D-01  0.197945D-01 -0.829042D-02  0.215410D-01
     14  0.147406D-01 -0.195642D-01 -0.200819D-01  0.197904D-01 -0.226593D-01
     15  0.313571D-01 -0.218502D-01 -0.508708D-02  0.266238D-02 -0.822808D-02
     16  0.540885D-02  0.176950D-02  0.176061D-03 -0.244098D-03 -0.255880D-01
     17  0.222956D-03  0.251409D-02 -0.374614D-03  0.398492D-02 -0.999567D-02
     18 -0.137899D-02  0.193108D-02 -0.434584D-03  0.323324D-02 -0.334035D-02
     19 -0.443707D-02 -0.184499D-02  0.700223D-03 -0.127334D-01  0.155837D-01
     20 -0.222738D-02 -0.724462D-03  0.355331D-03 -0.157922D-01  0.916584D-02
     21 -0.290602D-02 -0.194807D-04  0.722061D-03  0.510948D-02  0.201432D-02
                6             7             8             9            10 
      6  0.315128D+00
      7 -0.144357D-01  0.587490D+00
      8  0.812073D-02 -0.143949D-01  0.633614D+00
      9 -0.309851D-01  0.396962D-01 -0.606741D-01  0.432492D-01
     10  0.103612D-01  0.951132D-03 -0.245399D-01  0.146275D-01  0.621650D-01
     11  0.992032D-01 -0.296521D-02 -0.136943D-01  0.100419D-01  0.464187D-03
     12 -0.957092D-01 -0.145077D-02 -0.763264D-02  0.907013D-02 -0.710928D-02
     13  0.149592D-01 -0.154361D-01 -0.231476D-01 -0.172318D-01 -0.212216D-02
     14 -0.279211D-01 -0.222396D-01 -0.125432D-01 -0.161077D-01 -0.483872D-02
     15 -0.158436D+00 -0.189450D-01 -0.149163D-01 -0.567156D-02  0.382913D-03
     16  0.710509D-02 -0.538257D-01 -0.129352D-01  0.178780D-02 -0.406409D-02
     17  0.457113D-02 -0.167926D-01 -0.340236D+00  0.584597D-01 -0.165962D-02
     18  0.202497D-02  0.679006D-03  0.629574D-01 -0.153927D-01  0.660045D-03
     19 -0.277002D-02 -0.261349D+00  0.136034D+00 -0.103950D-01  0.158452D-02
     20 -0.277534D-02  0.141367D+00 -0.146233D+00  0.131379D-01  0.120396D-02
     21 -0.911494D-03 -0.593036D-02  0.983645D-02 -0.514004D-02 -0.101124D-02
               11            12            13            14            15 
     11  0.239667D+00
     12 -0.113719D+00  0.101549D+00
     13 -0.325163D-02 -0.133057D-02  0.457587D-01
     14  0.888579D-03  0.166464D-01 -0.947061D-02  0.528323D-01
     15 -0.281569D-02 -0.216373D-01 -0.147192D-01  0.479393D-01  0.190751D+00
     16 -0.275020D-02 -0.825611D-03  0.486194D-03  0.343639D-03 -0.764470D-03
     17  0.159124D-03 -0.943065D-03  0.785786D-03  0.369796D-03 -0.269749D-03
     18  0.154462D-02  0.366158D-04 -0.284162D-03  0.490678D-03 -0.852300D-03
     19  0.673626D-05  0.194266D-02  0.240528D-02  0.167427D-02  0.262961D-04
     20  0.275825D-03  0.116561D-02  0.120037D-02  0.676011D-03  0.140706D-03
     21 -0.981278D-03 -0.725547D-03 -0.118798D-02 -0.965776D-03  0.933723D-03
               16            17            18            19            20 
     16  0.468329D-01
     17  0.181793D-01  0.353804D+00
     18 -0.340654D-02 -0.633695D-01  0.136455D-01
     19  0.540593D-02 -0.472076D-02  0.497407D-03  0.269124D+00
     20  0.209809D-01 -0.661522D-02 -0.213955D-03 -0.146733D+00  0.143455D+00
     21 -0.407232D-02  0.192603D-02  0.972436D-03  0.999844D-02 -0.118103D-01
               21 
     21  0.414886D-02
 Final forces over variables, Energy=-1.53613961D+02:
  2.21377489D-02-3.11735763D-02-1.79051796D-02 3.30714576D-03
  2.18042444D-02-4.31438824D-04 2.26105564D-03-2.36413776D-02
  4.88724930D-02-2.77168853D-02-5.42412205D-03 6.93909496D-03
  1.42721354D-03-4.56416506D-04-6.68986164D-03 3.63066129D-02
 -1.91544186D-02-3.87496703D-03-4.82912317D-03-2.63984646D-05
 -1.73184400D-03
 Leave Link  716 at Mon Aug 16 22:46:08 2021, MaxMem=   134217728 cpu:         0.2
 (Enter /soft/gaussian/09-e.01/g09/l103.exe)

 GradGradGradGradGradGradGradGradGradGradGradGradGradGradGradGradGradGrad
 Berny optimization.
 Search for a local minimum.
 Step number   1 out of a maximum of    2
 All quantities printed in internal units (Hartrees-Bohrs-Radians)
 Second derivative matrix not updated -- analytic derivatives used.
 ITU=  0
     Eigenvalues ---    0.00034   0.00773   0.01970   0.04910   0.06819
     Eigenvalues ---    0.07046   0.10199   0.12984   0.13864   0.29105
     Eigenvalues ---    0.36439   0.55554   0.84700   0.90210   0.98439
 Quadratic step=6.663D+00 exceeds max=3.000D-01 adjusted using Lamda=-5.900D-02.
 Angle between NR and scaled steps=  77.95 degrees.
 Angle between quadratic step and forces=  44.15 degrees.
 Linear search not attempted -- first point.
 B after Tr=    -0.016938   -0.002767   -0.003941
         Rot=    0.999986   -0.005080    0.001680    0.000264 Ang=  -0.61 deg.
 Variable       Old X    -DE/DX   Delta X   Delta X   Delta X     New X
                                 (Linear)    (Quad)   (Total)
    X1        2.17854   0.02214   0.00000  -0.01729  -0.03428   2.14426
    Y1       -0.45870  -0.02364   0.00000  -0.04409  -0.04734  -0.50604
    Z1       -0.03026  -0.00669   0.00000  -0.03574  -0.03754  -0.06780
    X2        0.07026  -0.03117   0.00000  -0.05307  -0.06996   0.00030
    Y2        0.83125   0.04887   0.00000   0.08205   0.07797   0.90923
    Z2       -0.00237   0.03631   0.00000   0.12597   0.13136   0.12900
    X3       -2.40306  -0.01791   0.00000  -0.00879  -0.02541  -2.42847
    Y3       -0.42270  -0.02772   0.00000  -0.04562  -0.04541  -0.46810
    Z3       -0.06260  -0.01915   0.00000  -0.09901  -0.11579  -0.17839
    X4        0.05785   0.00331   0.00000   0.01752   0.00541   0.06326
    Y4        2.68995  -0.00542   0.00000  -0.01869  -0.01117   2.67878
    Z4       -1.00168  -0.00387   0.00000  -0.02872  -0.00521  -1.00689
    X5       -0.21621   0.02180   0.00000   0.17327   0.15002  -0.06619
    Y5        1.46401   0.00694   0.00000   0.10564   0.08132   1.54533
    Z5        2.07668  -0.00483   0.00000   0.03933   0.05108   2.12775
    X6       -2.51533  -0.00043   0.00000   0.01644  -0.00295  -2.51828
    Y6       -2.44855   0.00143   0.00000  -0.01256  -0.01750  -2.46605
    Z6        0.31177  -0.00003   0.00000   0.04857   0.01122   0.32299
    X7       -4.12514   0.00226   0.00000  -0.00679  -0.02283  -4.14797
    Y7        0.70986  -0.00046   0.00000  -0.03892  -0.03787   0.67199
    Z7       -0.13294  -0.00173   0.00000  -0.02414  -0.03512  -0.16806
         Item               Value     Threshold  Converged?
 Maximum Force            0.048872     0.000450     NO 
 RMS     Force            0.019323     0.000300     NO 
 Maximum Displacement     0.150016     0.001800     NO 
 RMS     Displacement     0.063511     0.001200     NO 
 Predicted change in Energy=-1.226049D-02
 GradGradGradGradGradGradGradGradGradGradGradGradGradGradGradGradGradGrad

 Leave Link  103 at Mon Aug 16 22:46:08 2021, MaxMem=   134217728 cpu:         0.1
 (Enter /soft/gaussian/09-e.01/g09/l9999.exe)

 Test job not archived.
 1\1\GINC-B460\Freq\UM062X\CC-pVDZ\C2H4O1(3)\KMOORE\16-Aug-2021\0\\#P m
 062x/cc-pvdz # SCF=(xqc) # Freq=() # IOp(7/33=1) # int=ultrafine # fch
 k NoSym guess=mix\\comment:\\0,3\O,1.152835,-0.242734,-0.016015\C,0.03
 7179,0.439881,-0.001252\C,-1.271643,-0.223681,-0.033126\H,0.030613,1.4
 2346,-0.530067\H,-0.114412,0.774722,1.09893\H,-1.331055,-1.295716,0.16
 4983\H,-2.18293,0.375644,-0.070348\\Version=ES64L-G09RevE.01\HF=-153.6
 139608\S2=2.011224\S2-1=0.\S2A=2.000066\RMSD=2.283e-09\RMSF=1.932e-02\
 ZeroPoint=0.0502573\Thermal=0.054613\Dipole=-0.6223018,0.3738767,0.196
 849\DipoleDeriv=-0.1616333,0.0444621,-0.1251662,-0.0744402,-0.2929197,
 0.0609333,-0.0145199,0.0304855,-0.2701303,0.0110316,-0.0433747,0.18841
 97,0.0468799,0.3406046,-0.1188161,0.1303592,-0.1672436,0.3951143,0.071
 4782,-0.0644352,-0.0124347,-0.013423,0.0105324,-0.0729547,-0.0801982,-
 0.0520437,-0.2607286,-0.0000496,0.0194413,0.005604,-0.0012007,-0.14144
 01,0.1246068,0.0305648,0.176895,-0.0040144,0.0969372,0.0293815,-0.0454
 28,0.0298526,0.1173745,-0.0368784,-0.1174848,-0.042561,-0.1032183,0.01
 51842,0.0117221,-0.0070794,-0.0319381,-0.0295309,0.0281408,0.0154525,0
 .0437223,0.1219349,-0.0329482,0.0028029,-0.0039155,0.0442695,-0.004620
 8,0.0149683,0.0358265,0.0107455,0.1210424\Polar=29.6077155,-0.2197458,
 25.825526,-0.6154867,-0.3795983,19.2005038\PG=C01 [X(C2H4O1)]\NImag=0\
 \0.36525840,-0.20892452,0.17170760,-0.01094097,-0.00339835,0.02362442,
 -0.28042197,0.15683819,0.00779462,0.55502803,0.15519189,-0.15281500,0.
 01446446,-0.07130457,0.52339001,-0.02389428,0.03236574,-0.03111119,0.0
 0867455,-0.11356442,0.31512828,-0.05233117,0.00505918,0.00038663,-0.20
 549924,-0.09003415,-0.01443571,0.58749000,0.01804546,0.02278375,0.0023
 0849,-0.07906190,-0.14369123,0.00812073,-0.01439493,0.63361406,0.01289
 260,-0.00135887,0.00487006,-0.04137730,-0.00349891,-0.03098515,0.03969
 625,-0.06067408,0.04324923,-0.01067551,0.03475999,-0.01791111,-0.04783
 891,-0.00538991,0.01036120,0.00095113,-0.02453989,0.01462748,0.0621650
 1,0.02295095,-0.02390180,0.00672657,-0.01445484,-0.20339461,0.09920324
 ,-0.00296521,-0.01369426,0.01004192,0.00046419,0.23966714,-0.00512944,
 -0.00766994,0.00741631,0.01390302,0.11215298,-0.09570924,-0.00145077,-
 0.00763264,0.00907013,-0.00710928,-0.11371938,0.10154904,-0.02280153,0
 .01234264,0.01979455,-0.00829042,0.02154101,0.01495918,-0.01543608,-0.
 02314756,-0.01723183,-0.00212216,-0.00325163,-0.00133057,0.04575871,0.
 01474065,-0.01956418,-0.02008188,0.01979036,-0.02265933,-0.02792108,-0
 .02223959,-0.01254321,-0.01610769,-0.00483872,0.00088858,0.01664643,-0
 .00947061,0.05283234,0.03135710,-0.02185019,-0.00508708,0.00266238,-0.
 00822808,-0.15843616,-0.01894504,-0.01491633,-0.00567156,0.00038291,-0
 .00281569,-0.02163731,-0.01471919,0.04793932,0.19075068,0.00540885,0.0
 0176950,0.00017606,-0.00024410,-0.02558797,0.00710509,-0.05382574,-0.0
 1293518,0.00178780,-0.00406409,-0.00275020,-0.00082561,0.00048619,0.00
 034364,-0.00076447,0.04683294,0.00022296,0.00251409,-0.00037461,0.0039
 8492,-0.00999567,0.00457113,-0.01679256,-0.34023621,0.05845973,-0.0016
 5962,0.00015912,-0.00094307,0.00078579,0.00036980,-0.00026975,0.018179
 27,0.35380409,-0.00137899,0.00193108,-0.00043458,0.00323324,-0.0033403
 5,0.00202497,0.00067901,0.06295737,-0.01539268,0.00066004,0.00154462,0
 .00003662,-0.00028416,0.00049068,-0.00085230,-0.00340654,-0.06336945,0
 .01364554,-0.00443707,-0.00184499,0.00070022,-0.01273339,0.01558371,-0
 .00277002,-0.26134891,0.13603400,-0.01039500,0.00158452,0.00000674,0.0
 0194266,0.00240528,0.00167427,0.00002630,0.00540593,-0.00472076,0.0004
 9741,0.26912363,-0.00222738,-0.00072446,0.00035533,-0.01579217,0.00916
 584,-0.00277534,0.14136725,-0.14623290,0.01313791,0.00120396,0.0002758
 2,0.00116561,0.00120037,0.00067601,0.00014071,0.02098093,-0.00661522,-
 0.00021395,-0.14673296,0.14345491,-0.00290602,-0.00001948,0.00072206,0
 .00510948,0.00201432,-0.00091149,-0.00593036,0.00983645,-0.00514004,-0
 .00101124,-0.00098128,-0.00072555,-0.00118798,-0.00096578,0.00093372,-
 0.00407232,0.00192603,0.00097244,0.00999844,-0.01181027,0.00414886\\-0
 .02213775,0.02364138,0.00668986,0.03117358,-0.04887249,-0.03630661,0.0
 1790518,0.02771689,0.01915442,-0.00330715,0.00542412,0.00387497,-0.021
 80424,-0.00693909,0.00482912,0.00043144,-0.00142721,0.00002640,-0.0022
 6106,0.00045642,0.00173184\\\@


 HAPPINESS IS NOT HAVING WHAT YOU WANT --
 HAPPINESS IS WANTING WHAT YOU HAVE!

              -- FROM MRS. SEVERN'S DESK
 Job cpu time:       0 days  0 hours  4 minutes 11.7 seconds.
 File lengths (MBytes):  RWF=     10 Int=      0 D2E=      0 Chk=      1 Scr=      1
 Normal termination of Gaussian 09 at Mon Aug 16 22:46:08 2021.
