comment:                                                                
Freq      UM062X                                                      CC-pVDZ             
Number of atoms                            I                7
Info1-9                                    I   N=           9
          21          20           0           0           0         101
           6          18        -502
Full Title                                 C   N=           1
comment:    
Route                                      C   N=           8
#P m062x/cc-pvdz # SCF=(xqc) # Freq=() # IOp(7/33=1) # int=u
ltrafine # fchk NoSym guess=mix     
Charge                                     I                0
Multiplicity                               I                3
Number of electrons                        I               24
Number of alpha electrons                  I               13
Number of beta electrons                   I               11
Number of basis functions                  I               62
Number of independent functions            I               62
Number of point charges in /Mol/           I                0
Number of translation vectors              I                0
Atomic numbers                             I   N=           7
           8           6           6           1           1           1
           1
Nuclear charges                            R   N=           7
  8.00000000E+00  6.00000000E+00  6.00000000E+00  1.00000000E+00  1.00000000E+00
  1.00000000E+00  1.00000000E+00
Current cartesian coordinates              R   N=          21
  2.17854243E+00 -4.58700783E-01 -3.02639640E-02  7.02581279E-02  8.31254621E-01
 -2.36593712E-03 -2.40305701E+00 -4.22695831E-01 -6.25990679E-02  5.78501861E-02
  2.68994956E+00 -1.00168146E+00 -2.16207346E-01  1.46401241E+00  2.07667674E+00
 -2.51532942E+00 -2.44854839E+00  3.11772687E-01 -4.12513987E+00  7.09864283E-01
 -1.32938454E-01
Number of symbols in /Mol/                 I                0
Force Field                                I                0
Atom Types                                 C   N=           7
                                                            
                        
Int Atom Types                             I   N=           7
           0           0           0           0           0           0
           0
MM charges                                 R   N=           7
  0.00000000E+00  0.00000000E+00  0.00000000E+00  0.00000000E+00  0.00000000E+00
  0.00000000E+00  0.00000000E+00
Integer atomic weights                     I   N=           7
          16          12          12           1           1           1
           1
Real atomic weights                        R   N=           7
  1.59949146E+01  1.20000000E+01  1.20000000E+01  1.00782504E+00  1.00782504E+00
  1.00782504E+00  1.00782504E+00
Atom fragment info                         I   N=           7
           0           0           0           0           0           0
           0
Atom residue num                           I   N=           7
           0           0           0           0           0           0
           0
Nuclear spins                              I   N=           7
           0           0           0           1           1           1
           1
Nuclear ZEff                               R   N=           7
 -5.60000000E+00 -3.60000000E+00 -3.60000000E+00 -1.00000000E+00 -1.00000000E+00
 -1.00000000E+00 -1.00000000E+00
Nuclear ZNuc                               R   N=           7
  8.00000000E+00  6.00000000E+00  6.00000000E+00  1.00000000E+00  1.00000000E+00
  1.00000000E+00  1.00000000E+00
Nuclear QMom                               R   N=           7
  0.00000000E+00  0.00000000E+00  0.00000000E+00  0.00000000E+00  0.00000000E+00
  0.00000000E+00  0.00000000E+00
Nuclear GFac                               R   N=           7
  0.00000000E+00  0.00000000E+00  0.00000000E+00  2.79284600E+00  2.79284600E+00
  2.79284600E+00  2.79284600E+00
MicOpt                                     I   N=           7
          -1          -1          -1          -1          -1          -1
          -1
Number of residues                         I                0
Number of secondary structures             I                0
Number of contracted shells                I               30
Number of primitive shells                 I               80
Pure/Cartesian d shells                    I                0
Pure/Cartesian f shells                    I                0
Highest angular momentum                   I                2
Largest degree of contraction              I                7
Shell types                                I   N=          30
           0           0           0           1           1          -2
           0           0           0           1           1          -2
           0           0           0           1           1          -2
           0           0           1           0           0           1
           0           0           1           0           0           1
Number of primitives per shell             I   N=          30
           7           7           1           3           1           1
           7           7           1           3           1           1
           7           7           1           3           1           1
           3           1           1           3           1           1
           3           1           1           3           1           1
Shell to atom map                          I   N=          30
           1           1           1           1           1           1
           2           2           2           2           2           2
           3           3           3           3           3           3
           4           4           4           5           5           5
           6           6           6           7           7           7
Primitive exponents                        R   N=          80
  1.17200000E+04  1.75900000E+03  4.00800000E+02  1.13700000E+02  3.70300000E+01
  1.32700000E+01  5.02500000E+00  1.17200000E+04  4.00800000E+02  1.13700000E+02
  3.70300000E+01  1.32700000E+01  5.02500000E+00  1.01300000E+00  3.02300000E-01
  1.77000000E+01  3.85400000E+00  1.04600000E+00  2.75300000E-01  1.18500000E+00
  6.66500000E+03  1.00000000E+03  2.28000000E+02  6.47100000E+01  2.10600000E+01
  7.49500000E+00  2.79700000E+00  6.66500000E+03  2.28000000E+02  6.47100000E+01
  2.10600000E+01  7.49500000E+00  2.79700000E+00  5.21500000E-01  1.59600000E-01
  9.43900000E+00  2.00200000E+00  5.45600000E-01  1.51700000E-01  5.50000000E-01
  6.66500000E+03  1.00000000E+03  2.28000000E+02  6.47100000E+01  2.10600000E+01
  7.49500000E+00  2.79700000E+00  6.66500000E+03  2.28000000E+02  6.47100000E+01
  2.10600000E+01  7.49500000E+00  2.79700000E+00  5.21500000E-01  1.59600000E-01
  9.43900000E+00  2.00200000E+00  5.45600000E-01  1.51700000E-01  5.50000000E-01
  1.30100000E+01  1.96200000E+00  4.44600000E-01  1.22000000E-01  7.27000000E-01
  1.30100000E+01  1.96200000E+00  4.44600000E-01  1.22000000E-01  7.27000000E-01
  1.30100000E+01  1.96200000E+00  4.44600000E-01  1.22000000E-01  7.27000000E-01
  1.30100000E+01  1.96200000E+00  4.44600000E-01  1.22000000E-01  7.27000000E-01
Contraction coefficients                   R   N=          80
  7.11864434E-04  5.48520199E-03  2.79099296E-02  1.05133208E-01  2.84002490E-01
  4.51673946E-01  2.73208126E-01  7.69030046E-06  3.13484579E-04 -2.96614853E-03
 -1.08753543E-02 -1.20753817E-01 -1.06275264E-01  1.09597548E+00  1.00000000E+00
  6.26791663E-02  3.33536566E-01  7.41239642E-01  1.00000000E+00  1.00000000E+00
  6.93516317E-04  5.34150243E-03  2.71366714E-02  1.01992385E-01  2.75508636E-01
  4.51086433E-01  2.87565745E-01  7.73354740E-06  2.78072137E-04 -2.57875654E-03
 -8.95087684E-03 -1.06058855E-01 -1.31517686E-01  1.09948660E+00  1.00000000E+00
  5.69792516E-02  3.13207212E-01  7.60376742E-01  1.00000000E+00  1.00000000E+00
  6.93516317E-04  5.34150243E-03  2.71366714E-02  1.01992385E-01  2.75508636E-01
  4.51086433E-01  2.87565745E-01  7.73354740E-06  2.78072137E-04 -2.57875654E-03
 -8.95087684E-03 -1.06058855E-01 -1.31517686E-01  1.09948660E+00  1.00000000E+00
  5.69792516E-02  3.13207212E-01  7.60376742E-01  1.00000000E+00  1.00000000E+00
  3.34987264E-02  2.34800801E-01  8.13682958E-01  1.00000000E+00  1.00000000E+00
  3.34987264E-02  2.34800801E-01  8.13682958E-01  1.00000000E+00  1.00000000E+00
  3.34987264E-02  2.34800801E-01  8.13682958E-01  1.00000000E+00  1.00000000E+00
  3.34987264E-02  2.34800801E-01  8.13682958E-01  1.00000000E+00  1.00000000E+00
Coordinates of each shell                  R   N=          90
  2.17854243E+00 -4.58700783E-01 -3.02639640E-02  2.17854243E+00 -4.58700783E-01
 -3.02639640E-02  2.17854243E+00 -4.58700783E-01 -3.02639640E-02  2.17854243E+00
 -4.58700783E-01 -3.02639640E-02  2.17854243E+00 -4.58700783E-01 -3.02639640E-02
  2.17854243E+00 -4.58700783E-01 -3.02639640E-02  7.02581279E-02  8.31254621E-01
 -2.36593712E-03  7.02581279E-02  8.31254621E-01 -2.36593712E-03  7.02581279E-02
  8.31254621E-01 -2.36593712E-03  7.02581279E-02  8.31254621E-01 -2.36593712E-03
  7.02581279E-02  8.31254621E-01 -2.36593712E-03  7.02581279E-02  8.31254621E-01
 -2.36593712E-03 -2.40305701E+00 -4.22695831E-01 -6.25990679E-02 -2.40305701E+00
 -4.22695831E-01 -6.25990679E-02 -2.40305701E+00 -4.22695831E-01 -6.25990679E-02
 -2.40305701E+00 -4.22695831E-01 -6.25990679E-02 -2.40305701E+00 -4.22695831E-01
 -6.25990679E-02 -2.40305701E+00 -4.22695831E-01 -6.25990679E-02  5.78501861E-02
  2.68994956E+00 -1.00168146E+00  5.78501861E-02  2.68994956E+00 -1.00168146E+00
  5.78501861E-02  2.68994956E+00 -1.00168146E+00 -2.16207346E-01  1.46401241E+00
  2.07667674E+00 -2.16207346E-01  1.46401241E+00  2.07667674E+00 -2.16207346E-01
  1.46401241E+00  2.07667674E+00 -2.51532942E+00 -2.44854839E+00  3.11772687E-01
 -2.51532942E+00 -2.44854839E+00  3.11772687E-01 -2.51532942E+00 -2.44854839E+00
  3.11772687E-01 -4.12513987E+00  7.09864283E-01 -1.32938454E-01 -4.12513987E+00
  7.09864283E-01 -1.32938454E-01 -4.12513987E+00  7.09864283E-01 -1.32938454E-01
Constraint Structure                       R   N=          21
  2.17854243E+00 -4.58700783E-01 -3.02639640E-02  7.02581279E-02  8.31254621E-01
 -2.36593712E-03 -2.40305701E+00 -4.22695831E-01 -6.25990679E-02  5.78501861E-02
  2.68994956E+00 -1.00168146E+00 -2.16207346E-01  1.46401241E+00  2.07667674E+00
 -2.51532942E+00 -2.44854839E+00  3.11772687E-01 -4.12513987E+00  7.09864283E-01
 -1.32938454E-01
Num ILSW                                   I              100
ILSW                                       I   N=         100
           1           0           0           0           2           0
           0           0           3           0        4336          -1
           5           0           0           0           2           0
           0           0           0           0           1           0
           1           1           0           0           0           0
           0           0      100000           0          -1           0
           0           0           0           0           0           0
           0           0           0           1           0           0
           0           0           1           0           0           0
           0           0           4          41           0           0
           0           0          55           0           0           0
           0           0           0           7           0           0
           0           0           0           0           0           0
           0           0           0           0           0           0
           0           0           0           0           0           0
           0           0           0           0           0           0
           0           0           0           0
Num RLSW                                   I               41
RLSW                                       R   N=          41
  1.00000000E+00  1.00000000E+00  1.00000000E+00  1.00000000E+00  5.40000000E-01
  0.00000000E+00  0.00000000E+00  1.00000000E+00  0.00000000E+00  0.00000000E+00
  0.00000000E+00  0.00000000E+00  1.00000000E+00  0.00000000E+00  0.00000000E+00
  0.00000000E+00  0.00000000E+00  1.00000000E+00  0.00000000E+00  0.00000000E+00
  0.00000000E+00  0.00000000E+00  1.00000000E+00  0.00000000E+00  0.00000000E+00
  0.00000000E+00  0.00000000E+00  1.00000000E+00  0.00000000E+00  0.00000000E+00
  0.00000000E+00  0.00000000E+00  1.00000000E+00  0.00000000E+00  0.00000000E+00
  0.00000000E+00  0.00000000E+00  0.00000000E+00  1.00000000E+00  1.00000000E+00
  0.00000000E+00
MxBond                                     I                4
NBond                                      I   N=           7
           1           4           3           1           1           1
           1
IBond                                      I   N=          28
           2           0           0           0           1           3
           4           5           2           6           7           0
           2           0           0           0           2           0
           0           0           3           0           0           0
           3           0           0           0
RBond                                      R   N=          28
  1.00000000E+00  0.00000000E+00  0.00000000E+00  0.00000000E+00  1.00000000E+00
  1.00000000E+00  1.00000000E+00  1.00000000E+00  1.00000000E+00  1.00000000E+00
  1.00000000E+00  0.00000000E+00  1.00000000E+00  0.00000000E+00  0.00000000E+00
  0.00000000E+00  1.00000000E+00  0.00000000E+00  0.00000000E+00  0.00000000E+00
  1.00000000E+00  0.00000000E+00  0.00000000E+00  0.00000000E+00  1.00000000E+00
  0.00000000E+00  0.00000000E+00  0.00000000E+00
Virial Ratio                               R      2.005084484195976E+00
SCF Energy                                 R     -1.536139608218950E+02
Total Energy                               R     -1.536139608218950E+02
S**2                                       R      2.011223546759471E+00
S**2 after annihilation                    R      2.000065865535690E+00
RMS Force                                  R      1.932277017454613E-02
RMS Density                                R      2.282676420457013E-09
Job Status                                 I                1
Nuclear derivative order                   I                2
External E-field                           R   N=          35
  0.00000000E+00  0.00000000E+00  0.00000000E+00  0.00000000E+00  0.00000000E+00
  0.00000000E+00  0.00000000E+00  0.00000000E+00  0.00000000E+00  0.00000000E+00
  0.00000000E+00  0.00000000E+00  0.00000000E+00  0.00000000E+00  0.00000000E+00
  0.00000000E+00  0.00000000E+00  0.00000000E+00  0.00000000E+00  0.00000000E+00
  0.00000000E+00  0.00000000E+00  0.00000000E+00  0.00000000E+00  0.00000000E+00
  0.00000000E+00  0.00000000E+00  0.00000000E+00  0.00000000E+00  0.00000000E+00
  0.00000000E+00  0.00000000E+00  0.00000000E+00  0.00000000E+00  0.00000000E+00
IOpCl                                      I                1
IROHF                                      I                0
Alpha Orbital Energies                     R   N=          62
 -1.96778467E+01 -1.06138927E+01 -1.05636985E+01 -1.17870866E+00 -8.56206337E-01
 -6.86150820E-01 -5.71976214E-01 -5.61052663E-01 -5.25741036E-01 -4.70638116E-01
 -4.01997243E-01 -3.67492403E-01 -2.54011188E-01  1.08063039E-01  1.42206633E-01
  1.51308686E-01  1.80430683E-01  2.50817295E-01  2.92914487E-01  4.65758558E-01
  5.10658998E-01  5.24576341E-01  5.49221706E-01  5.95677382E-01  6.54070948E-01
  6.75545743E-01  6.83658927E-01  7.02564465E-01  7.28511907E-01  8.84375029E-01
  9.12014372E-01  9.19450561E-01  1.01653240E+00  1.08538025E+00  1.11876139E+00
  1.16779494E+00  1.24116859E+00  1.43497112E+00  1.48284635E+00  1.51030026E+00
  1.57678077E+00  1.58542067E+00  1.64268998E+00  1.67740823E+00  1.73174842E+00
  1.79087984E+00  1.82768104E+00  1.85283020E+00  1.90849675E+00  1.98837853E+00
  2.08651293E+00  2.18385984E+00  2.19661594E+00  2.31896975E+00  2.38991200E+00
  2.53514918E+00  2.64282090E+00  2.70870755E+00  2.77566603E+00  3.09389634E+00
  3.24768340E+00  3.35219953E+00
Beta Orbital Energies                      R   N=          62
 -1.96633211E+01 -1.06151543E+01 -1.05560082E+01 -1.12312616E+00 -8.16005369E-01
 -6.52891365E-01 -5.44918041E-01 -5.09029493E-01 -4.80953578E-01 -4.55443888E-01
 -3.39234930E-01 -8.05471542E-02  6.02170495E-03  1.01684108E-01  1.45956384E-01
  1.51696733E-01  1.86877608E-01  2.53115623E-01  3.02998831E-01  4.68992485E-01
  5.28374838E-01  5.40107989E-01  5.81008018E-01  6.02953408E-01  6.46181724E-01
  6.87215662E-01  7.05332656E-01  7.26757166E-01  7.38183419E-01  9.10600593E-01
  9.23082920E-01  9.48875608E-01  1.06318267E+00  1.11359167E+00  1.14438705E+00
  1.18062816E+00  1.24610740E+00  1.44940372E+00  1.49875154E+00  1.53187230E+00
  1.59189863E+00  1.60803525E+00  1.65153619E+00  1.68397102E+00  1.74767058E+00
  1.80786685E+00  1.84824145E+00  1.87490497E+00  1.92825426E+00  2.00500586E+00
  2.10080044E+00  2.20441534E+00  2.21206413E+00  2.33485869E+00  2.40378087E+00
  2.56964793E+00  2.67545324E+00  2.75694855E+00  2.82693056E+00  3.13018843E+00
  3.26419233E+00  3.37763997E+00
Alpha MO coefficients                      R   N=        3844
  9.96991128E-01  1.93627293E-02 -1.07692556E-02 -1.40708927E-03  8.48572638E-04
  4.17573439E-05  2.69942293E-03 -1.51545812E-03 -2.65085194E-04  1.64198210E-04
  6.95422884E-05  8.71435547E-05 -6.05440248E-05  7.18936342E-05  1.44385959E-05
 -9.29441401E-05  6.01102612E-03  3.38381375E-04 -5.15600973E-05 -4.11105497E-05
  2.67885786E-03 -2.92305186E-03  9.96830605E-04  1.59217202E-04 -1.19518779E-04
 -7.04119674E-05 -2.69246471E-04  4.39761153E-04  1.55928575E-05 -6.53451970E-05
 -1.05814063E-03 -2.06249742E-04 -2.03287009E-04 -3.41220409E-05 -1.22006444E-03
  1.47224037E-03 -2.47782062E-04 -3.67113068E-05 -1.23248947E-04  1.27011972E-05
 -4.12872853E-04  9.37783936E-05 -2.85078455E-04  5.38624484E-04 -4.11443818E-04
  2.38915204E-04 -3.15982728E-05 -7.17407157E-04 -6.68846846E-04 -1.90276378E-04
  2.70832938E-04  9.31470372E-05  1.29925271E-04  6.74549956E-04  5.49542202E-06
 -1.06602067E-04  2.37866378E-05 -1.61133727E-04 -4.31791159E-04  5.79061241E-05
 -1.13796741E-04 -5.65264727E-06 -3.96100285E-05  4.63803801E-04 -1.60620225E-03
  2.33053929E-04 -4.32036350E-05 -3.68348614E-05  1.05801018E-03 -1.23097137E-03
  1.36570207E-04  4.12470029E-04  1.50381007E-05  1.05931109E-05 -2.96937037E-04
  6.15420404E-04  9.96920308E-01  2.51403639E-02 -1.43519814E-02  3.99060358E-04
  9.82968724E-06  5.45491937E-04  4.16084703E-03  3.91772563E-04 -8.57778041E-04
 -9.22910985E-05 -1.85450125E-04 -2.13769948E-04 -3.67833516E-05 -5.79107732E-04
  4.19774555E-03 -3.69454216E-04  5.35918741E-03 -3.43513675E-04 -1.94261143E-04
  4.86507876E-05  2.41642536E-03  1.70912256E-03 -6.55919403E-05  2.64672708E-04
 -2.37692966E-05 -5.61979802E-05 -5.31916885E-04 -7.44214996E-04 -6.64818837E-04
  1.63871939E-03 -2.46580178E-04  1.19741514E-03 -6.00612547E-04 -1.21207760E-04
  2.00633622E-03 -2.13992161E-04  3.77049418E-04  1.18722233E-03 -3.38606028E-04
  7.12647535E-04 -2.19558455E-04 -8.95080462E-06  3.50323853E-06 -4.29262255E-04
  2.85604096E-04 -1.48422166E-04 -1.67391186E-04  1.97210227E-05 -9.91104838E-06
 -1.97889385E-04  3.29260415E-04  9.44603725E-05  3.37144405E-05 -1.50143801E-05
 -2.10957876E-04  1.87170541E-04  1.03775205E-04 -8.40115740E-05 -5.72558425E-06
  4.42897718E-06 -8.79682603E-05 -3.70419378E-05 -4.19221134E-03 -2.21562319E-04
  1.07635756E-03  4.87645192E-04  3.68291477E-04  8.73975607E-05 -7.20769960E-04
 -6.27477034E-04 -7.10543096E-04  6.26346378E-04  5.75454752E-05 -4.92586179E-06
 -6.49456278E-04 -6.85213064E-04  9.96845237E-01  2.45599124E-02 -1.10374582E-02
 -3.66661968E-04 -3.39425252E-05  3.07781586E-04 -1.03269099E-03 -5.83419961E-04
 -2.84197231E-04 -1.06994148E-03  1.00334371E-04 -3.08913467E-04 -3.44760616E-04
 -4.39643225E-04 -1.60658778E-04  2.79866449E-04 -2.36135040E-05 -3.49833265E-06
  6.66621015E-05  1.00388068E-05  1.27918915E-03 -3.79098767E-04 -1.95355615E-04
 -3.82245202E-05 -1.62980904E-03  1.86097730E-03 -6.45604477E-05 -1.64925462E-03
  3.88422000E-04 -1.62618741E-03  1.79222720E-03 -1.43613437E-03  9.71041547E-04
  2.00818991E-05 -1.98980340E-01  4.31203248E-01  4.18676434E-01 -1.07969841E-01
  6.52665283E-02  3.45971678E-03 -3.40356186E-02  2.07160949E-02  2.39923256E-03
  5.07467233E-04  2.55376210E-03  5.16974187E-03  5.17266065E-03 -9.71614694E-03
 -9.42039544E-02  1.85629112E-01  5.81783547E-02  1.19307092E-01 -8.14732398E-02
  1.99605099E-03  1.64849188E-02 -1.00866961E-02 -4.89313180E-03 -1.53879121E-02
  1.75000578E-03  1.71167496E-03  1.41725059E-02 -2.43687059E-02 -1.65933113E-02
  3.38183809E-02  2.39483623E-02  2.81353596E-02  6.84820736E-03  1.72792645E-03
  1.02980786E-02  3.24837947E-03  4.69179289E-04 -1.85395810E-03  1.13002285E-03
  4.23684716E-04  7.47080658E-03  2.33978112E-03  3.71447992E-02  3.53894668E-05
  2.58622727E-03 -7.62937871E-03  4.26066641E-03  4.55864604E-02  4.44142822E-03
  1.80412078E-03 -2.92324580E-03 -8.21590975E-03  9.60439287E-03  2.96375349E-04
  3.58972146E-04  2.35149497E-03 -5.83049473E-04  4.26097937E-03  1.20200049E-03
  1.30701912E-03  7.09134357E-04  2.66549094E-04  6.85880688E-02 -1.55730525E-01
 -1.78319329E-01 -5.29231891E-02  9.14667875E-03  6.52034879E-03 -3.12894915E-02
  1.31959608E-02  4.01531681E-03 -4.22019247E-03 -1.85666051E-03 -1.47704673E-03
  3.20766835E-03 -1.72365313E-03 -1.11997764E-01  2.36624326E-01  1.39114053E-01
 -1.63562515E-01 -2.33540801E-03  2.02875827E-02 -5.25365735E-02  1.69375023E-03
  1.92967458E-03 -3.80154075E-03 -9.61126946E-04  3.72996906E-05  3.37370718E-03
  1.40156878E-02 -1.52761707E-01  3.11829988E-01  2.28686306E-01  7.33183764E-02
  5.42692055E-02  1.48103100E-02  1.67546955E-02  1.54210226E-02  5.55706443E-03
 -2.15713948E-03  1.57632331E-03  2.09913253E-03  2.50912812E-03  1.03628900E-02
  9.52340163E-02  5.80369546E-03 -1.85341920E-03 -9.81914175E-03  6.38246519E-03
  1.26746495E-01  9.68132163E-03 -1.70042731E-03 -4.40371585E-03 -1.45004649E-02
  1.08737830E-01  4.87628364E-03  1.56007947E-03  1.46084027E-02 -2.02138693E-03
  1.21728819E-01  6.28068870E-03  1.45079511E-02 -8.66192799E-03  1.10862324E-03
  5.77657411E-02 -1.33770676E-01 -1.71877670E-01 -9.75036686E-02  1.48076768E-01
  3.92545409E-02 -6.42470629E-02  8.36925337E-02  2.32438928E-02 -6.74826150E-03
 -3.19410517E-03 -4.28423060E-04 -9.75589183E-04 -9.78792836E-03 -1.05515002E-01
  2.45528893E-01  1.32261787E-01  5.70988401E-02  1.39619273E-01  4.66342206E-02
  4.24347283E-03  7.39901193E-02  9.62416190E-03  9.13395135E-03  1.68095187E-03
  3.36135148E-04  5.50666615E-04 -4.74274229E-03  1.12923686E-01 -2.38387095E-01
 -1.90629228E-01  1.09450906E-01  9.19870010E-02  6.22091427E-03  4.11311337E-02
  2.28181304E-02  5.43211349E-03 -5.42228252E-03  2.65159917E-03  8.39713205E-04
  2.10172581E-03  7.88794617E-03  1.82723061E-01  2.28312941E-02  2.81416077E-04
 -1.38702194E-02  1.13380785E-02  1.79952045E-01  3.22266754E-02  3.23389278E-03
 -6.32812444E-04 -1.47537211E-02 -1.82999200E-01 -3.84591145E-02  7.63887029E-04
 -1.86407154E-02  3.57076478E-03 -1.53683358E-01 -2.66405884E-02 -1.26380534E-02
  1.13083447E-02 -6.63388751E-04 -1.24141689E-03  4.57931756E-03 -7.85429921E-04
  7.28015785E-03 -1.23490894E-02  3.90555678E-01  5.52455187E-03 -7.61811797E-03
  2.32153396E-01  1.01915959E-03 -1.60579964E-02  9.97031563E-03  1.24227845E-03
  1.36100686E-03  1.99082082E-02 -4.41725754E-02 -4.23432351E-02 -4.80187458E-03
 -8.06812379E-02  3.40252756E-01  6.64195567E-03 -2.99666972E-02  1.35858713E-01
  8.63281241E-03  1.69092287E-02 -1.15842412E-02 -1.10229028E-03  1.03707485E-04
  3.35116788E-03 -6.26486657E-03 -9.36687291E-03  2.07476051E-02 -5.54420700E-02
  1.23312244E-01  4.89870989E-03 -1.91998789E-02  5.80145671E-02  3.10773262E-03
  1.25511594E-02  7.70940704E-03  1.27942613E-03 -1.93043231E-03 -1.92896398E-01
 -5.21572390E-02  1.81329139E-03  1.46554448E-02 -5.81830195E-04  2.13925761E-01
  6.32709571E-02 -7.81003475E-04 -7.17658734E-03 -8.74522806E-03  4.82026875E-02
  1.05262507E-02  4.77970640E-04  4.05124961E-03  2.56295238E-03 -4.11780618E-02
 -1.17261519E-02 -2.62654908E-03  7.13971463E-04  2.61766117E-03 -4.79423879E-02
  1.02281437E-01  1.87042871E-01  3.81254387E-01  2.55554269E-02  9.42808078E-02
  2.20772877E-01  1.54092528E-02  5.70447086E-02  9.79596727E-03 -2.28280047E-03
  3.65320371E-03 -1.52896729E-02  6.03720794E-03  2.57111191E-02 -7.32981324E-02
 -4.42642776E-02 -6.78456705E-02  2.96388275E-01  4.66415745E-02  3.27956930E-02
  9.41033233E-02  1.94090523E-02  7.55063949E-03  3.51712874E-03 -2.86825917E-03
  1.56011222E-02  8.19408318E-03 -9.74484586E-03  1.19642489E-02  4.55637962E-02
 -2.04232645E-01  1.54520330E-01  5.13358735E-03 -6.10693981E-02  8.24922667E-02
  2.27629011E-03  3.48961543E-04  9.24315674E-04  2.07673348E-03 -8.48852830E-03
 -2.18543349E-03  1.30806091E-01  4.33181191E-02 -3.92120844E-03 -5.43388338E-03
  8.66395229E-03  8.42261599E-02  4.08986236E-02 -1.34199210E-03  5.65521798E-03
 -6.62911466E-03 -8.46316145E-02 -6.09523177E-03 -6.51366428E-03 -3.80870734E-03
  1.55360501E-03  1.90109931E-01  5.07527757E-02  9.63256798E-03 -5.79045798E-03
  1.14518824E-03  3.74597472E-02 -7.88352182E-02 -1.52940124E-01 -1.53428298E-01
  3.86821482E-01  7.78407982E-02 -8.81149470E-02  2.32418079E-01  4.93492645E-02
 -9.02951535E-03 -2.29146826E-03 -4.01712027E-04 -4.55086541E-03 -1.60904058E-02
  4.51738855E-03 -4.35307891E-03 -1.72096755E-02  3.43325753E-01  5.02014248E-02
 -1.21565330E-02  7.07250571E-02  5.38969996E-02 -1.87134594E-03 -5.81068997E-03
  6.14831851E-03 -2.22461942E-03  1.93812279E-02 -5.51961015E-03 -1.83400220E-02
  3.38668412E-02  4.15698113E-02 -2.60516053E-01 -1.59167423E-01 -5.64393921E-03
 -1.05604549E-01 -8.24108035E-02 -4.44046688E-03  4.44378328E-03 -1.65006928E-03
 -2.92774668E-03 -5.91361026E-04 -1.42343518E-02  3.10811736E-02  9.05802829E-04
  6.90983401E-03 -1.85670772E-03  1.46140656E-03 -4.51922302E-02 -1.36107014E-02
  7.96621050E-03  3.14148764E-03  3.61612680E-03  1.51153059E-01  2.46720294E-02
 -6.18121550E-03  1.06499765E-02 -2.56692468E-03  1.26421603E-01  4.33874944E-02
  3.38256543E-03 -7.24920976E-03  4.36821604E-04  9.89953360E-03 -2.33194531E-02
 -2.73981760E-02 -2.64815429E-01 -1.77096749E-02  3.85643874E-02 -1.67375090E-01
 -1.23269847E-02  2.72536090E-02 -4.55960751E-03 -1.69253837E-03  3.75790965E-04
  1.03181863E-02 -3.43446818E-03  2.58241157E-03  2.00778614E-03 -2.21000540E-02
  4.89884413E-02 -1.85031322E-01  2.55073826E-02 -4.32951656E-02 -2.98335128E-02
  1.70591837E-03 -5.86646672E-03  5.33732586E-03  1.13956270E-03  1.12079012E-02
 -2.33713356E-02  1.44959077E-03  3.80925369E-04 -2.09090528E-02 -1.42107574E-01
  3.58506644E-01 -5.09005215E-02 -4.27084450E-02  1.09918218E-01 -1.52055795E-02
 -1.33038486E-03  1.43058633E-03  4.08032477E-03  1.34375114E-02 -8.53224979E-03
 -1.53187459E-01 -7.90319460E-02  4.12217469E-03  5.48781101E-03 -6.06071859E-03
 -4.31365735E-02 -2.26350101E-02 -6.79675640E-05 -5.86705394E-03  4.23086661E-03
 -2.96003553E-01 -1.22658019E-01 -5.03802169E-03 -1.32081361E-02  2.49608544E-03
  2.72966119E-01  1.20409748E-01  1.45882662E-02 -4.37560463E-04 -3.94473076E-04
 -1.12005558E-03  5.22475619E-03 -5.78687154E-03  6.37443151E-02  8.66183377E-02
  4.94793097E-01  5.10518352E-02  6.24064053E-02  3.48955664E-01 -5.57759271E-04
 -6.60154047E-03  3.74190632E-03 -1.30230090E-03  2.99374932E-04 -1.08428107E-02
  2.69595063E-02  4.25040643E-02 -7.36298844E-02 -4.87311700E-02 -2.02913177E-01
 -2.01701807E-02 -4.14790668E-02 -5.18678252E-02 -1.25640020E-02  3.54194745E-02
 -1.70726276E-02  4.91339742E-03  6.09245156E-03 -1.89061236E-02  4.96796366E-02
  5.72306648E-02  1.39861906E-01  2.66838540E-02 -2.31213653E-01  5.33255158E-02
  2.53254120E-02 -1.62850089E-01 -3.39539138E-03 -9.42535887E-03 -9.13847020E-03
  3.35017168E-03  3.59469696E-03  9.21277909E-02  6.22479833E-02 -2.03538626E-03
 -7.02582852E-03 -5.13068352E-03 -2.73063537E-01 -1.54884050E-01 -3.16230142E-04
  4.17767731E-03  1.00042416E-02 -3.32448215E-02 -6.92355113E-03  3.84633388E-03
 -2.28535133E-03 -5.28949812E-03 -5.60426690E-02 -3.64057644E-02 -2.73084469E-04
  3.11544390E-03 -6.68770343E-03 -9.67723332E-04  6.18174124E-03 -9.38162940E-03
  2.59896518E-01  4.63532950E-01 -1.50570139E-01  1.91668125E-01  3.30793041E-01
 -1.06296866E-01 -1.87955200E-04  3.16931534E-03 -1.32197650E-03 -8.41134206E-03
 -4.79010813E-03  2.62813562E-03  7.33598079E-03 -3.78658110E-02 -1.03473958E-01
 -1.83489806E-01  3.37968604E-02  1.99017220E-02 -3.08360969E-02 -1.34364402E-02
 -4.88007426E-03 -1.05640816E-02  9.92801579E-03  4.42432785E-02  2.04251230E-02
 -3.19340020E-02  7.26424128E-02  1.90823091E-01  2.11135414E-01  1.16651485E-01
  3.60597351E-02  1.02038796E-01  7.16480820E-02  3.86825054E-02  1.23557377E-03
  3.53443641E-03  4.07600581E-03  1.03166636E-02 -1.34406104E-04 -2.36924593E-01
 -1.58934896E-01 -3.82320349E-03  5.65217667E-03 -5.10238404E-03 -1.67701470E-02
 -1.96722576E-02 -6.86794275E-03 -9.05635952E-03  2.28734386E-03 -7.21573351E-02
 -7.76979022E-02  9.48230864E-04 -1.97310616E-03  1.17180696E-03 -6.44142210E-02
 -4.93177164E-02  1.78268382E-04  7.20737547E-03  4.32486561E-04 -5.06643437E-03
  1.22219373E-02  2.68473214E-02 -3.57497314E-02  2.05789929E-02  1.21914301E-01
 -2.54757741E-02  1.79769912E-02  1.05399410E-01 -1.62518851E-03  3.45264898E-04
 -2.45696878E-03  1.00506625E-03 -4.30930481E-04 -3.27883804E-03  1.35881886E-02
 -1.48492565E-02 -2.47140695E-02 -1.36863708E-02 -1.61179354E-01 -2.03198037E-02
 -1.18468254E-02 -9.44231123E-02 -2.01493866E-02 -1.66555805E-02 -2.85005169E-02
  1.65615385E-03 -2.09901619E-03 -8.30237951E-04 -7.43462816E-04  2.57400083E-03